

     ************************************************************************
     *************** Dalton - An Electronic Structure Program ***************
     ************************************************************************

    This is output from DALTON release Dalton2020.0.beta (2020)
         ( Web site: http://daltonprogram.org )

   ----------------------------------------------------------------------------

    NOTE:
     
    Dalton is an experimental code for the evaluation of molecular
    properties using (MC)SCF, DFT, CI, and CC wave functions.
    The authors accept no responsibility for the performance of
    the code or for the correctness of the results.
     
    The code (in whole or part) is provided under a licence and
    is not to be reproduced for further distribution without
    the written permission of the authors or their representatives.
     
    See the home page "http://daltonprogram.org" for further information.
     
    If results obtained with this code are published,
    the appropriate citations would be both of:
     
       K. Aidas, C. Angeli, K. L. Bak, V. Bakken, R. Bast,
       L. Boman, O. Christiansen, R. Cimiraglia, S. Coriani,
       P. Dahle, E. K. Dalskov, U. Ekstroem,
       T. Enevoldsen, J. J. Eriksen, P. Ettenhuber, B. Fernandez,
       L. Ferrighi, H. Fliegl, L. Frediani, K. Hald, A. Halkier,
       C. Haettig, H. Heiberg, T. Helgaker, A. C. Hennum,
       H. Hettema, E. Hjertenaes, S. Hoest, I.-M. Hoeyvik,
       M. F. Iozzi, B. Jansik, H. J. Aa. Jensen, D. Jonsson,
       P. Joergensen, J. Kauczor, S. Kirpekar,
       T. Kjaergaard, W. Klopper, S. Knecht, R. Kobayashi, H. Koch,
       J. Kongsted, A. Krapp, K. Kristensen, A. Ligabue,
       O. B. Lutnaes, J. I. Melo, K. V. Mikkelsen, R. H. Myhre,
       C. Neiss, C. B. Nielsen, P. Norman, J. Olsen,
       J. M. H. Olsen, A. Osted, M. J. Packer, F. Pawlowski,
       T. B. Pedersen, P. F. Provasi, S. Reine, Z. Rinkevicius,
       T. A. Ruden, K. Ruud, V. Rybkin, P. Salek, C. C. M. Samson,
       A. Sanchez de Meras, T. Saue, S. P. A. Sauer,
       B. Schimmelpfennig, K. Sneskov, A. H. Steindal,
       K. O. Sylvester-Hvid, P. R. Taylor, A. M. Teale,
       E. I. Tellgren, D. P. Tew, A. J. Thorvaldsen, L. Thoegersen,
       O. Vahtras, M. A. Watson, D. J. D. Wilson, M. Ziolkowski
       and H. Agren,
       "The Dalton quantum chemistry program system",
       WIREs Comput. Mol. Sci. 2014, 4:269–284 (doi: 10.1002/wcms.1172)
     
    and
     
       Dalton, a molecular electronic structure program,
       Release Dalton2020.0.beta (2020), see http://daltonprogram.org
   ----------------------------------------------------------------------------

    Authors in alphabetical order (major contribution(s) in parenthesis):

  Kestutis Aidas,           Vilnius University,           Lithuania   (QM/MM)
  Celestino Angeli,         University of Ferrara,        Italy       (NEVPT2)
  Keld L. Bak,              UNI-C,                        Denmark     (AOSOPPA, non-adiabatic coupling, magnetic properties)
  Vebjoern Bakken,          University of Oslo,           Norway      (DALTON; geometry optimizer, symmetry detection)
  Radovan Bast,             UiT The Arctic U. of Norway,  Norway      (DALTON installation and execution frameworks)
  Pablo Baudin,             University of Valencia,       Spain       (Cholesky excitation energies)
  Linus Boman,              NTNU,                         Norway      (Cholesky decomposition and subsystems)
  Ove Christiansen,         Aarhus University,            Denmark     (CC module)
  Renzo Cimiraglia,         University of Ferrara,        Italy       (NEVPT2)
  Sonia Coriani,            Technical Univ. of Denmark,   Denmark     (CC module, MCD in RESPONS)
  Janusz Cukras,            University of Trieste,        Italy       (MChD in RESPONS)
  Paal Dahle,               University of Oslo,           Norway      (Parallelization)
  Erik K. Dalskov,          UNI-C,                        Denmark     (SOPPA)
  Thomas Enevoldsen,        Univ. of Southern Denmark,    Denmark     (SOPPA)
  Janus J. Eriksen,         Aarhus University,            Denmark     (Polarizable embedding model, TDA)
  Rasmus Faber,             University of Copenhagen,     Denmark     (Vib.avg. NMR with SOPPA, parallel AO-SOPPA)
  Tobias Fahleson,          KTH Stockholm,                Sweden      (Damped cubic response)
  Berta Fernandez,          U. of Santiago de Compostela, Spain       (doublet spin, ESR in RESPONS)
  Lara Ferrighi,            Aarhus University,            Denmark     (PCM Cubic response)
  Heike Fliegl,             University of Oslo,           Norway      (CCSD(R12))
  Luca Frediani,            UiT The Arctic U. of Norway,  Norway      (PCM)
  Bin Gao,                  UiT The Arctic U. of Norway,  Norway      (Gen1Int library)
  Christof Haettig,         Ruhr-University Bochum,       Germany     (CC module)
  Kasper Hald,              Aarhus University,            Denmark     (CC module)
  Asger Halkier,            Aarhus University,            Denmark     (CC module)
  Frederik Beyer Hansen,    University of Copenhagen,     Denmark     (Parallel AO-SOPPA)
  Erik D. Hedegaard,        Univ. of Southern Denmark,    Denmark     (Polarizable embedding model, QM/MM)
  Hanne Heiberg,            University of Oslo,           Norway      (geometry analysis, selected one-electron integrals)
  Trygve Helgaker,          University of Oslo,           Norway      (DALTON; ABACUS, ERI, DFT modules, London, and much more)
  Alf Christian Hennum,     University of Oslo,           Norway      (Parity violation)
  Hinne Hettema,            University of Auckland,       New Zealand (quadratic response in RESPONS; SIRIUS supersymmetry)
  Eirik Hjertenaes,         NTNU,                         Norway      (Cholesky decomposition)
  Pi A. B. Haase,           University of Copenhagen,     Denmark     (Triplet AO-SOPPA)
  Maria Francesca Iozzi,    University of Oslo,           Norway      (RPA)
  Christoph Jacob           TU Braunschweig               Germany     (Frozen density embedding model)
  Brano Jansik              Technical Univ. of Ostrava    Czech Rep.  (DFT cubic response)
  Hans Joergen Aa. Jensen,  Univ. of Southern Denmark,    Denmark     (DALTON; SIRIUS, RESPONS, ABACUS modules, London, and much more)
  Dan Jonsson,              UiT The Arctic U. of Norway,  Norway      (cubic response in RESPONS module)
  Poul Joergensen,          Aarhus University,            Denmark     (RESPONS, ABACUS, and CC modules)
  Maciej Kaminski,          University of Warsaw,         Poland      (CPPh in RESPONS)
  Joanna Kauczor,           Linkoeping University,        Sweden      (Complex polarization propagator (CPP) module)
  Sheela Kirpekar,          Univ. of Southern Denmark,    Denmark     (Mass-velocity & Darwin integrals)
  Wim Klopper,              KIT Karlsruhe,                Germany     (R12 code in CC, SIRIUS, and ABACUS modules)
  Stefan Knecht,            ETH Zurich,                   Switzerland (Parallel CI and MCSCF)
  Rika Kobayashi,           Australian National Univ.,    Australia   (DIIS in CC, London in MCSCF)
  Henrik Koch,              NTNU,                         Norway      (CC module, Cholesky decomposition)
  Jacob Kongsted,           Univ. of Southern Denmark,    Denmark     (Polarizable embedding model, QM/MM)
  Andrea Ligabue,           University of Modena,         Italy       (CTOCD, AOSOPPA)
  Nanna H. List             Univ. of Southern Denmark,    Denmark     (Polarizable embedding model)
  Ola B. Lutnaes,           University of Oslo,           Norway      (DFT Hessian)
  Juan I. Melo,             University of Buenos Aires,   Argentina   (LRESC, Relativistic Effects on NMR Shieldings)
  Kurt V. Mikkelsen,        University of Copenhagen,     Denmark     (MC-SCRF and QM/MM)
  Rolf H. Myhre,            NTNU,                         Norway      (Subsystems and CC3)
  Christian Neiss,          Univ. Erlangen-Nuernberg,     Germany     (CCSD(R12))
  Christian B. Nielsen,     University of Copenhagen,     Denmark     (QM/MM)
  Patrick Norman,           KTH Stockholm,                Sweden      (Cubic response and complex frequency response in RESPONS)
  Jeppe Olsen,              Aarhus University,            Denmark     (SIRIUS CI/density modules)
  Jogvan Magnus H. Olsen,   Univ. of Southern Denmark,    Denmark     (Polarizable embedding model, QM/MM)
  Anders Osted,             Copenhagen University,        Denmark     (QM/MM)
  Martin J. Packer,         University of Sheffield,      UK          (SOPPA)
  Filip Pawlowski,          Kazimierz Wielki University,  Poland      (CC3)
  Morten N. Pedersen,       Univ. of Southern Denmark,    Denmark     (Polarizable embedding model)
  Thomas B. Pedersen,       University of Oslo,           Norway      (Cholesky decomposition)
  Patricio F. Provasi,      University of Northeastern,   Argentina   (Analysis of coupling constants in localized orbitals)
  Zilvinas Rinkevicius,     KTH Stockholm,                Sweden      (open-shell DFT, ESR)
  Elias Rudberg,            KTH Stockholm,                Sweden      (DFT grid and basis info)
  Torgeir A. Ruden,         University of Oslo,           Norway      (Numerical derivatives in ABACUS)
  Kenneth Ruud,             UiT The Arctic U. of Norway,  Norway      (DALTON; ABACUS magnetic properties and much more)
  Pawel Salek,              KTH Stockholm,                Sweden      (DALTON; DFT code)
  Claire C. M. Samson       University of Karlsruhe       Germany     (Boys localization, r12 integrals in ERI)
  Alfredo Sanchez de Meras, University of Valencia,       Spain       (CC module, Cholesky decomposition)
  Trond Saue,               Paul Sabatier University,     France      (direct Fock matrix construction)
  Stephan P. A. Sauer,      University of Copenhagen,     Denmark     (SOPPA(CCSD), SOPPA prop., AOSOPPA, vibrational g-factors)
  Andre S. P. Gomes,        CNRS/Universite de Lille,     France      (Frozen density embedding model)
  Bernd Schimmelpfennig,    Forschungszentrum Karlsruhe,  Germany     (AMFI module)
  Anna K. Schnack-Petersen, University of Copenhagen,     Denmark     (RPA(D) and HRPA(D) properties in AOSOPPA)
  Kristian Sneskov,         Aarhus University,            Denmark     (Polarizable embedding model, QM/MM)
  Arnfinn H. Steindal,      UiT The Arctic U. of Norway,  Norway      (parallel QM/MM, Polarizable embedding model)
  Casper Steinmann,         Univ. of Southern Denmark,    Denmark     (QFIT, Polarizable embedding model)
  K. O. Sylvester-Hvid,     University of Copenhagen,     Denmark     (MC-SCRF)
  Peter R. Taylor,          VLSCI/Univ. of Melbourne,     Australia   (Symmetry handling ABACUS, integral transformation)
  Andrew M. Teale,          University of Nottingham,     England     (DFT-AC, DFT-D)
  David P. Tew,             University of Bristol,        England     (CCSD(R12))
  Olav Vahtras,             KTH Stockholm,                Sweden      (triplet response, spin-orbit, ESR, TDDFT, open-shell DFT)
  Lucas Visscher,           Vrije Universiteit Amsterdam, Netherlands (Frozen density embedding model)
  David J. Wilson,          La Trobe University,          Australia   (DFT Hessian and DFT magnetizabilities)
  Hans Agren,               KTH Stockholm,                Sweden      (SIRIUS module, RESPONS, MC-SCRF solvation model)
 --------------------------------------------------------------------------------

     Date and time (Linux)  : Mon Jul 27 23:11:39 2020
     Host name              : localhost.localdomain                   

 * Work memory size             :    64000000 =  488.28 megabytes.

 * Directories for basis set searches:
   1) /home/foeroyingur/Projects/dalton_devel/dalton/build_pde/test/pecc_ccsd
   2) /home/foeroyingur/Projects/dalton_devel/dalton/build_pde/basis


Compilation information
-----------------------

 Who compiled             | foeroyingur
 Host                     | localhost.localdomain
 System                   | Linux-5.7.8-200.fc32.x86_64
 CMake generator          | Unix Makefiles
 Processor                | x86_64
 64-bit integers          | OFF
 MPI                      | ON
 Fortran compiler         | /usr/lib64/openmpi/bin/mpif90
 Fortran compiler version | GNU Fortran (GCC) 10.1.1 20200507 (Red Hat 10.1.1-
                          | 1)
 C compiler               | /usr/lib64/openmpi/bin/mpicc
 C compiler version       | gcc (GCC) 10.1.1 20200507 (Red Hat 10.1.1-1)
 C++ compiler             | /usr/lib64/openmpi/bin/mpicxx
 C++ compiler version     | unknown
 BLAS                     | /lib64/libopenblas.so
 LAPACK                   | /lib64/liblapack.so
 Static linking           | OFF
 Last Git revision        | b058b5c1034ca5290b815a629f29812c8e37c450
 Git branch               | new-pde-fixes
 Configuration time       | 2020-07-27 20:05:45.713451

 * Sequential calculation.


   Content of the .dal input file
 ----------------------------------

**DALTON
.RUN WAVE
.PELIB
*PELIB
.ITERATIVE
**WAVE FUNCTIONS
.CC
*CC INP
.CCSD
*PECC
*CCEXCI
.NCCEXCI
2
*CCLRSD
.DIPOLE
**END OF


   Content of the .mol file
 ----------------------------

ATOMBASIS
CH2O PLUS 2 WATERS
------------------------
AtomTypes=3 NoSymmetry Angstrom
        6.0   1    Basis=6-31G*
C           -1.588367    -.770650     .029109
        8.0   1    Basis=6-31G*
O           -1.657083     .436069    -.009750
        1.0   2    Basis=6-31G*
H           -.620668   -1.294822      .054251
H           -2.508043   -1.382001     .040282


       *******************************************************************
       *********** Output from DALTON general input processing ***********
       *******************************************************************

 --------------------------------------------------------------------------------
   Overall default print level:    0
   Print level for DALTON.STAT:    1

    HERMIT 1- and 2-electron integral sections will be executed
    "Old" integral transformation used (limited to max 255 basis functions)
    Wave function sections will be executed (SIRIUS module)
    Environment effects are included (PElib)
 --------------------------------------------------------------------------------


   ****************************************************************************
   *************** Output of molecule and basis set information ***************
   ****************************************************************************


    The two title cards from your ".mol" input:
    ------------------------------------------------------------------------
 1: CH2O PLUS 2 WATERS                                                      
 2: ------------------------                                                
    ------------------------------------------------------------------------

  Coordinates are entered in Angstrom and converted to atomic units.
          - Conversion factor : 1 bohr = 0.52917721 A

  Atomic type no.    1
  --------------------
  Nuclear charge:   6.00000
  Number of symmetry independent centers:    1
  Number of basis sets to read;    2
  The basis set is "6-31G*" from the basis set library.
  Basis set file used for this atomic type with Z =   6 :
     "/home/foeroyingur/Projects/dalton_devel/dalton/build_pde/basis/6-31G*"

  Info about the basis set file: your basis has no documentation.
  Basis set: 6-31G*                                                                          

  Atomic type no.    2
  --------------------
  Nuclear charge:   8.00000
  Number of symmetry independent centers:    1
  Number of basis sets to read;    2
  The basis set is "6-31G*" from the basis set library.
  Basis set file used for this atomic type with Z =   8 :
     "/home/foeroyingur/Projects/dalton_devel/dalton/build_pde/basis/6-31G*"

  Info about the basis set file: your basis has no documentation.
  Basis set: 6-31G*                                                                          

  Atomic type no.    3
  --------------------
  Nuclear charge:   1.00000
  Number of symmetry independent centers:    2
  Number of basis sets to read;    2
  The basis set is "6-31G*" from the basis set library.
  Basis set file used for this atomic type with Z =   1 :
     "/home/foeroyingur/Projects/dalton_devel/dalton/build_pde/basis/6-31G*"

  Info about the basis set file: your basis has no documentation.
  Basis set: 6-31G*                                                                          


                         SYMGRP: Point group information
                         -------------------------------

@    Point group: C1 


                                 Isotopic Masses
                                 ---------------

                           C          12.000000
                           O          15.994915
                           H           1.007825
                           H           1.007825

                       Total mass:    30.010565 amu
                       Natural abundance:  98.633 %

 Center-of-mass coordinates (a.u.):   -3.067740   -0.312997    0.018175
 Center-of-mass coordinates (Angs):   -1.623378   -0.165631    0.009618


  Atoms and basis sets
  --------------------

  Number of atom types :    3
  Total number of atoms:    4

  label    atoms   charge   prim   cont     basis
  ----------------------------------------------------------------------
  C           1    6.0000    27    14      [10s4p1d|3s2p1d]                                   
  O           1    8.0000    27    14      [10s4p1d|3s2p1d]                                   
  H           2    1.0000     4     2      [4s|2s]                                            
  ----------------------------------------------------------------------
  total:      4   16.0000    62    32
  ----------------------------------------------------------------------
  Spherical harmonic basis used.

  Threshold for neglecting AO integrals:  1.00D-12


  Cartesian Coordinates (a.u.)
  ----------------------------

  Total number of coordinates:   12
  C       :     1  x  -3.0015786160    2  y  -1.4563174382    3  z   0.0550080378
  O       :     4  x  -3.1314330364    5  y   0.8240509816    6  z  -0.0184248297
  H       :     7  x  -1.1728925345    8  y  -2.4468589606    9  z   0.1025195320
  H       :    10  x  -4.7395143797   11  y  -2.6116033945   12  z   0.0761219478


   Interatomic separations (in Angstrom):
   --------------------------------------

            C           O           H           H     
            ------      ------      ------      ------
 C     :    0.000000
 O     :    1.209298    0.000000
 H     :    1.100831    2.018474    0.000000
 H     :    1.104391    2.007988    1.889439    0.000000


  Max    interatomic separation is    2.0185 Angstrom (    3.8144 Bohr)
  between atoms    3 and    2, "H     " and "O     ".

  Min HX interatomic separation is    1.1008 Angstrom (    2.0803 Bohr)

  Min YX interatomic separation is    1.2093 Angstrom (    2.2852 Bohr)


  Bond distances (Angstrom):
  --------------------------

                  atom 1     atom 2       distance
                  ------     ------       --------
  bond distance:  O          C            1.209298
  bond distance:  H          C            1.100831
  bond distance:  H          C            1.104391


  Bond angles (degrees):
  ----------------------

                  atom 1     atom 2     atom 3         angle
                  ------     ------     ------         -----
  bond angle:     O          C          H            121.724
  bond angle:     O          C          H            120.357
  bond angle:     H          C          H            117.919




 Principal moments of inertia (u*A**2) and principal axes
 --------------------------------------------------------

   IA       1.798871         -0.056827    0.997867   -0.032124
   IB      13.009178          0.998345    0.057081    0.007042
   IC      14.808049         -0.008861    0.031671    0.999459


 Rotational constants
 --------------------

@    The molecule is planar.

               A                   B                   C

         280942.3015          38847.8806          34128.6681 MHz
            9.371226            1.295826            1.138410 cm-1


@  Nuclear repulsion energy :   31.249215315972 Hartree

  Reading potential input file for polarizable embedding calculation

    .------------------------------------------------.
    | Information from polarizable embedding library |
    `------------------------------------------------´

      Number of classical sites:      6

      Multipole moments upto 2nd order.

      Dipole-dipole polarizabilities.

      Iterative solver for induced moments will be used
      with convergence threshold: 1.0E-08
      Total charge of classical region:   -0.0000
 


                     .---------------------------------------.
                     | Starting in Integral Section (HERMIT) |
                     `---------------------------------------'



 ***************************************************************************************
 ****************** Output from **INTEGRALS input processing (HERMIT) ******************
 ***************************************************************************************


 - Using defaults, no **INTEGRALS input found

 Default print level:        1

 Calculation of one- and two-electron Hamiltonian integrals.

 Center of mass  (bohr):     -3.067740315293     -0.312997395263      0.018174673399
 Operator center (bohr):      0.000000000000      0.000000000000      0.000000000000
 Gauge origin    (bohr):      0.000000000000      0.000000000000      0.000000000000
 Dipole origin   (bohr):      0.000000000000      0.000000000000      0.000000000000

Calculation of 2-electron integrals are postoned until they are needed.


     ************************************************************************
     ************************** Output from HERINT **************************
     ************************************************************************



                      Nuclear contribution to dipole moments
                      --------------------------------------

                 au               Debye          C m (/(10**-30)

      x    -48.97334290      -124.47781350      -415.21329231
      y     -7.20395913       -18.31063652       -61.07770905
      z      0.36129107         0.91831024         3.06315324


  Total CPU  time used in HERMIT:   0.01 seconds
  Total wall time used in HERMIT:   0.01 seconds


                        .----------------------------------.
                        | End of Integral Section (HERMIT) |
                        `----------------------------------'



                   .--------------------------------------------.
                   | Starting in Wave Function Section (SIRIUS) |
                   `--------------------------------------------'

NCCEXCI for singlet:    2

 *** Output from Huckel module :

     Using EWMO model:          T
     Using EHT  model:          F
     Number of Huckel orbitals each symmetry:   12

 EWMO - Energy Weighted Maximum Overlap - is a Huckel type method,
        which normally is better than Extended Huckel Theory.
 Reference: Linderberg and Ohrn, Propagators in Quantum Chemistry (Wiley, 1973)

 Huckel EWMO eigenvalues for symmetry :  1
          -20.684762     -11.351957      -1.632119      -1.046130      -0.813248
           -0.702067      -0.605910      -0.491826      -0.321033      -0.161573
           -0.131670      -0.108806

 **********************************************************************
 *SIRIUS* a direct, restricted step, second order MCSCF program       *
 **********************************************************************

 
     Date and time (Linux)  : Mon Jul 27 23:11:39 2020
     Host name              : localhost.localdomain                   

 Title lines from ".mol" input file:
     CH2O PLUS 2 WATERS                                                      
     ------------------------                                                

 Print level on unit LUPRI =   2 is   0
 Print level on unit LUW4  =   2 is   5

@    (Integral direct) CC calculation.

@    This is a combination run starting with
@              a restricted, closed shell Hartree-Fock calculation


 Initial molecular orbitals are obtained according to
 ".MOSTART EWMO  " input option

@    QM part is embedded in an environment :

@         Model: PE

     Wave function specification
     ============================

     For the specification of the Coupled Cluster: see below.


     Wave function environment is modeled using the
     polarizable embedding model (PE library).

@    Wave function type        --- PE-CC ---
@    Number of closed shell electrons          16
@    Number of electrons in active shells       0
@    Total charge of the molecule               0

@    Spin multiplicity and 2 M_S                1         0
@    Total number of symmetries                 1 (point group: C1 )
@    Reference state symmetry                   1 (irrep name : A  )

     Orbital specifications
     ======================
@    Abelian symmetry species          All |    1
@                                          |  A  
                                       --- |  ---
@    Occupied SCF orbitals               8 |    8
@    Secondary orbitals                 24 |   24
@    Total number of orbitals           32 |   32
@    Number of basis functions          32 |   32

     Optimization information
     ========================
@    Number of configurations                 1
@    Number of orbital rotations            192
     ------------------------------------------
@    Total number of variables              193

     Maximum number of Fock   iterations      0
     Maximum number of DIIS   iterations     60
     Maximum number of QC-SCF iterations     60
     Threshold for SCF convergence     1.00D-06


 Changes of defaults for CC:
 ---------------------------

 -Excitation energies calculated
 -One-photon absorption strengths will be calculated
 -Oscillator strengths calculated
  


 ***********************************************
 ***** DIIS acceleration of SCF iterations *****
 ***********************************************

 C1-DIIS algorithm; max error vectors =    8

 Iter      Total energy     Embedding energy      Error norm     Delta(E)
 -----------------------------------------------------------------------------

Calculating AOSUPINT

---> (Re)generating AOTWOINT


     ************************************************************************
     ************************** Output from HERINT **************************
     ************************************************************************


 Threshold for neglecting two-electron integrals:  1.00D-12
 HERMIT - Number of two-electron integrals written:      130078 ( 93.1% )
 HERMIT - Megabytes written:                              1.491

     (Precalculated AO two-electron integrals are transformed to P-supermatrix elements.
      Threshold for discarding integrals :  1.00D-12 )
@  1  -113.442138190     -3.415981112830E-02    2.66732D+00   -1.13D+02
      Virial theorem: -V/T =      2.002690
@    MULPOP   C       1.05; O      -0.76; H      -0.14; H      -0.15; 
   1  Level shift: doubly occupied orbital energies shifted by -2.00D-01
 -----------------------------------------------------------------------------
@  2  -113.830611585     -2.006159059977E-02    1.09394D+00   -3.88D-01
      Virial theorem: -V/T =      2.006014
@    MULPOP   C      -0.22; O      -0.16; H       0.21; H       0.16; 
   2  Level shift: doubly occupied orbital energies shifted by -1.00D-01
 -----------------------------------------------------------------------------
@  3  -113.887946396     -2.967639167067E-02    2.30817D-01   -5.73D-02
      Virial theorem: -V/T =      1.999661
@    MULPOP   C       0.13; O      -0.52; H       0.23; H       0.15; 
   3  Level shift: doubly occupied orbital energies shifted by -2.50D-02
 -----------------------------------------------------------------------------
@  4  -113.891048267     -3.004809544183E-02    5.67693D-02   -3.10D-03
      Virial theorem: -V/T =      2.002564
@    MULPOP   C       0.13; O      -0.52; H       0.24; H       0.15; 
 -----------------------------------------------------------------------------
@  5  -113.891379529     -3.090021679821E-02    1.64050D-02   -3.31D-04
      Virial theorem: -V/T =      2.001865
@    MULPOP   C       0.13; O      -0.54; H       0.25; H       0.16; 
 -----------------------------------------------------------------------------
@  6  -113.891417361     -3.113663892902E-02    4.99149D-03   -3.78D-05
      Virial theorem: -V/T =      2.001926
@    MULPOP   C       0.13; O      -0.54; H       0.25; H       0.16; 
 -----------------------------------------------------------------------------
@  7  -113.891422121     -3.120291638924E-02    1.27906D-03   -4.76D-06
      Virial theorem: -V/T =      2.001939
@    MULPOP   C       0.13; O      -0.54; H       0.25; H       0.16; 
 -----------------------------------------------------------------------------
@  8  -113.891422428     -3.120956326115E-02    2.28576D-04   -3.07D-07
      Virial theorem: -V/T =      2.001941
@    MULPOP   C       0.13; O      -0.54; H       0.25; H       0.16; 
 -----------------------------------------------------------------------------
@  9  -113.891422435     -3.120987532533E-02    3.39067D-05   -6.90D-09
      Virial theorem: -V/T =      2.001941
@    MULPOP   C       0.13; O      -0.54; H       0.25; H       0.16; 
 -----------------------------------------------------------------------------
@ 10  -113.891422435     -3.120987287433E-02    1.01219D-05   -1.66D-10
      Virial theorem: -V/T =      2.001941
@    MULPOP   C       0.13; O      -0.54; H       0.25; H       0.16; 
 -----------------------------------------------------------------------------
@ 11  -113.891422435     -3.120987084357E-02    5.47488D-06   -5.48D-11
      Virial theorem: -V/T =      2.001941
@    MULPOP   C       0.13; O      -0.54; H       0.25; H       0.16; 
 -----------------------------------------------------------------------------
@ 12  -113.891422435     -3.120986620692E-02    2.15886D-06   -4.34D-11
      Virial theorem: -V/T =      2.001941
@    MULPOP   C       0.13; O      -0.54; H       0.25; H       0.16; 
 -----------------------------------------------------------------------------
@ 13  -113.891422435     -3.120987145426E-02    4.54571D-07    3.51D-11

@ *** DIIS converged in  13 iterations !
@     Converged SCF energy, gradient:   -113.891422434899    4.55D-07
    - total time used in SIRFCK :              0.00 seconds


 *** SCF orbital energy analysis ***
   (incl. contribution from polarizable embedding potential)

 Only the 20 lowest virtual orbital energies printed in each symmetry.

 Number of electrons :   16
 Orbital occupations :    8

 Sym       Hartree-Fock orbital energies

1 A     -20.59524826   -11.34735829    -1.41668882    -0.87359222    -0.70070680
         -0.66254590    -0.54633778    -0.45353132     0.12912753     0.25854056
          0.35366130     0.36984314     0.73140465     0.82957132     0.83684954
          0.94591471     1.08758302     1.11199796     1.15430295     1.25015565
          1.29614219     1.76904295     1.78665832     1.78700979     1.96458197
          2.15919363     2.22271631     2.44149940

    E(LUMO) :     0.12912753 au (symmetry 1)
  - E(HOMO) :    -0.45353132 au (symmetry 1)
  ------------------------------------------
    gap     :     0.58265885 au

    .--------------------------------------------------.
    | Final results from polarizable embedding library |
    `--------------------------------------------------´

        Polarizable embedding energy contributions:
       ---------------------------------------------

       Electrostatic contributions:
            Electronic                -0.217441756816
            Nuclear                    0.196503243383
            Multipole                 -0.013384943694
            Total                     -0.034323457126

       Polarization contributions:
            Electronic                -0.073230155537
            Nuclear                    0.068628860541
            Multipole                 -0.005670063026
            Total                     -0.010271358022

       Total PE energy:               -0.031209871454
            (excl. multipole-multipole interaction energy)

 --- Writing SIRIFC interface file


                           +---------------------------+
                           ! Writing FOCKMAT in siropt !
                           +---------------------------+


 CPU and wall time for SCF :       0.136       0.136


                       .-----------------------------------.
                       | --- Final results from SIRIUS --- |
                       `-----------------------------------'


@    Spin multiplicity:           1
@    Spatial symmetry:            1 ( irrep  A   in C1  )
@    Total charge of molecule:    0

@    Final HF energy:            -113.891422434899                 
@    Nuclear repulsion:            31.249215315972
@    Electronic energy:          -145.109427879417
@    Embedding energy:             -0.031209871454

@    Final gradient norm:           0.000000454571

 
     Date and time (Linux)  : Mon Jul 27 23:11:39 2020
     Host name              : localhost.localdomain                   

File label for MO orbitals:  27Jul20   FOCKDIIS

 (Only coefficients > 0.0100 are printed.)

 Molecular orbitals for symmetry species 1  (A  )
 ------------------------------------------------

    Orbital         1        2        3        4        5        6        7
   1 C   :1s    -0.0001  -0.9962  -0.1098   0.1660  -0.0052  -0.0105  -0.0001
   2 C   :1s     0.0001  -0.0238   0.2097  -0.3503   0.0091   0.0358   0.0009
   3 C   :1s    -0.0048   0.0083   0.0672  -0.3277   0.0382  -0.0990  -0.0017
   4 C   :2px   -0.0000   0.0002  -0.0100  -0.0015   0.4082   0.0116   0.0016
   5 C   :2py    0.0002  -0.0013   0.1758   0.1687  -0.0120   0.3823  -0.0102
   6 C   :2pz   -0.0000   0.0000  -0.0056  -0.0057   0.0039  -0.0122  -0.3107
   7 C   :2px    0.0002   0.0000  -0.0029  -0.0128   0.1582   0.0161   0.0009
   8 C   :2py   -0.0028  -0.0020  -0.0186   0.0841  -0.0024   0.0774  -0.0066
   9 C   :2pz    0.0001   0.0001   0.0007  -0.0037   0.0017  -0.0029  -0.1892
  10 C   :3d2-  -0.0001   0.0001  -0.0035  -0.0016  -0.0102  -0.0049   0.0006
  11 C   :3d1-  -0.0000   0.0001  -0.0019   0.0005  -0.0001  -0.0009  -0.0367
  12 C   :3d0   -0.0003   0.0009  -0.0176   0.0187  -0.0006  -0.0007   0.0019
  14 C   :3d2+  -0.0006   0.0007  -0.0282  -0.0164   0.0023  -0.0286   0.0012
  15 O   :1s    -0.9958   0.0004  -0.1997  -0.0885  -0.0001   0.0615  -0.0000
  16 O   :1s    -0.0224  -0.0003   0.4380   0.2025  -0.0035  -0.1419  -0.0000
  17 O   :1s     0.0100   0.0018   0.4082   0.2735   0.0102  -0.2705   0.0008
  18 O   :2px   -0.0002  -0.0000   0.0111   0.0014   0.3536   0.0400   0.0056
  19 O   :2py    0.0020   0.0001  -0.1341   0.1691   0.0468  -0.4971  -0.0161
  20 O   :2pz   -0.0001  -0.0000   0.0044  -0.0056   0.0011   0.0160  -0.5041
  21 O   :2px    0.0002   0.0001   0.0111   0.0098   0.2144   0.0076   0.0048
  22 O   :2py   -0.0031  -0.0019  -0.0467   0.0909   0.0342  -0.2998  -0.0118
  23 O   :2pz    0.0001   0.0001   0.0016  -0.0027   0.0001   0.0097  -0.3669
  24 O   :3d2-   0.0000  -0.0000  -0.0004   0.0025  -0.0225  -0.0078  -0.0005
  25 O   :3d1-   0.0000  -0.0000  -0.0008   0.0004  -0.0000  -0.0014   0.0403
  26 O   :3d0    0.0002  -0.0004  -0.0073   0.0019  -0.0010  -0.0103  -0.0025
  28 O   :3d2+  -0.0000  -0.0004  -0.0108   0.0098   0.0070  -0.0233  -0.0012
  29 H   :1s     0.0003   0.0003   0.0274  -0.1668   0.1837  -0.0820  -0.0003
  30 H   :1s    -0.0000  -0.0025  -0.0052  -0.0374   0.0920  -0.0547  -0.0001
  31 H   :1s     0.0003   0.0004   0.0277  -0.1772  -0.1662  -0.1142   0.0011
  32 H   :1s     0.0000  -0.0026  -0.0077  -0.0658  -0.1062  -0.0804   0.0010

    Orbital         8        9       10       11       12       13       14
   1 C   :1s    -0.0022   0.0000   0.1177   0.0228   0.0553   0.0003   0.0497
   2 C   :1s    -0.0010  -0.0016  -0.1571  -0.0603  -0.0099   0.0103   0.8619
   3 C   :1s     0.0287   0.0047  -1.8384  -0.2051  -1.7660  -0.0233  -2.1173
   4 C   :2px    0.2319  -0.0042   0.0927  -0.4400  -0.0418  -0.0094  -0.0276
   5 C   :2py   -0.0040   0.0139   0.2125   0.0423  -0.0629   0.0308  -0.4456
   6 C   :2pz    0.0008   0.4136  -0.0064  -0.0063   0.0027   1.0698   0.0051
   7 C   :2px    0.1074  -0.0079   0.3529  -1.5166  -0.0222   0.0077   0.1259
   8 C   :2py   -0.0191   0.0237   0.7244   0.2956  -1.9325  -0.0272   0.7603
   9 C   :2pz    0.0007   0.7202  -0.0189  -0.0226   0.0611  -1.1021  -0.0125
  10 C   :3d2-  -0.0598   0.0002  -0.0032  -0.0004   0.0022  -0.0002   0.0117
  11 C   :3d1-  -0.0004  -0.0300  -0.0001  -0.0001   0.0003   0.0176  -0.0060
  12 C   :3d0    0.0003   0.0018  -0.0061  -0.0056   0.0064  -0.0019  -0.1441
  14 C   :3d2+   0.0073   0.0008   0.0048   0.0019  -0.0015   0.0003   0.0660
  15 O   :1s    -0.0051   0.0001  -0.0017   0.0107  -0.0952  -0.0002  -0.0380
  16 O   :1s     0.0166   0.0001   0.0114  -0.0108   0.0903   0.0009   0.2061
  17 O   :1s     0.0201  -0.0025  -0.0721  -0.2496   2.0471   0.0015   0.1074
  18 O   :2px   -0.5342   0.0027  -0.0313   0.1160   0.0354  -0.0003  -0.0102
  19 O   :2py   -0.0101  -0.0116  -0.0570   0.0005  -0.1363   0.0008  -0.0326
  20 O   :2pz   -0.0060  -0.3670   0.0015   0.0016   0.0049   0.0165   0.0001
  21 O   :2px   -0.4499   0.0048  -0.0976   0.3797   0.0773  -0.0000  -0.0121
  22 O   :2py   -0.0270  -0.0152  -0.0672   0.1153  -0.9061   0.0003  -0.3304
  23 O   :2pz   -0.0038  -0.5187   0.0009  -0.0001   0.0289   0.0816   0.0098
  24 O   :3d2-   0.0140   0.0000  -0.0004   0.0112  -0.0051   0.0010   0.0035
  25 O   :3d1-   0.0003  -0.0002  -0.0001   0.0004  -0.0032  -0.0901  -0.0001
  26 O   :3d0    0.0029  -0.0001  -0.0051   0.0005  -0.0287   0.0046  -0.0251
  28 O   :3d2+  -0.0057   0.0001   0.0050   0.0077  -0.0474   0.0028   0.0166
  29 H   :1s     0.1911  -0.0009   0.0687   0.0136  -0.0035   0.0055   0.5587
  30 H   :1s     0.1711   0.0010   0.9712   2.0039   0.0986   0.0059   0.2456
  31 H   :1s    -0.1915  -0.0008   0.0406   0.0301  -0.0015   0.0047   0.6155
  32 H   :1s    -0.2215  -0.0023   1.8010  -1.3569  -0.1967   0.0038   0.3542

    Orbital        15       16       17       18
   1 C   :1s     0.0041   0.0429  -0.0158   0.0756
   2 C   :1s     0.0487  -0.9125   0.3829  -0.4863
   3 C   :1s    -0.1046   0.5838  -0.7491   2.0273
   4 C   :2px    0.7572   0.0304  -0.7232  -0.1002
   5 C   :2py    0.0156  -0.9095  -0.1582   0.3095
   6 C   :2pz    0.0053   0.0305  -0.0020  -0.0103
   7 C   :2px   -2.3497   0.0003   0.9822   0.0374
   8 C   :2py   -0.0312   0.5121   0.1878  -0.0185
   9 C   :2pz   -0.0189  -0.0181   0.0036   0.0008
  10 C   :3d2-  -0.0608  -0.0184  -0.2081  -0.0678
  11 C   :3d1-  -0.0009  -0.0070   0.0002  -0.0152
  12 C   :3d0   -0.0099  -0.0350   0.0302  -0.1764
  14 C   :3d2+   0.0077  -0.1540   0.0119  -0.1556
  15 O   :1s    -0.0017  -0.0526   0.0015   0.0392
  16 O   :1s     0.0194   0.1947  -0.0194  -0.1799
  17 O   :1s    -0.0457  -0.1362   0.1075  -0.5800
  18 O   :2px    0.3393   0.0214   0.1280  -0.0279
  19 O   :2py    0.0133  -0.2574   0.0428  -0.7313
  20 O   :2pz    0.0020   0.0081   0.0001   0.0239
  21 O   :2px    0.2536   0.0195  -0.0453   0.0491
  22 O   :2py    0.0138  -0.5216  -0.0667   1.2912
  23 O   :2pz    0.0022   0.0172   0.0013  -0.0415
  24 O   :3d2-  -0.0308   0.0166   0.1407   0.0409
  25 O   :3d1-  -0.0000   0.0107  -0.0003   0.0053
  26 O   :3d0    0.0003   0.1012  -0.0119   0.0479
  28 O   :3d2+   0.0059   0.1624  -0.0261   0.0783
  29 H   :1s     0.3868  -0.1351   0.5565   0.4513
  30 H   :1s     0.9666   0.0091  -0.8621  -0.8718
  31 H   :1s    -0.3035  -0.1559  -0.8524   0.2150
  32 H   :1s    -0.9201   0.0562   1.5234  -0.5690

  Total CPU  time used in SIRIUS :   0.14 seconds
  Total wall time used in SIRIUS :   0.14 seconds

 
     Date and time (Linux)  : Mon Jul 27 23:11:39 2020
     Host name              : localhost.localdomain                   


                     .---------------------------------------.
                     | End of Wave Function Section (SIRIUS) |
                     `---------------------------------------'



                    .------------------------------------------.
                    | Starting in Coupled Cluster Section (CC) |
                    `------------------------------------------'

  

 *******************************************************************************
 *******************************************************************************
 *                                                                             *
 *                                                                             *
 *                    START OF COUPLED CLUSTER CALCULATION                     *
 *                                                                             *
 *                                                                             *
 *******************************************************************************
 *******************************************************************************



 CCR12 ANSATZ =   0

 CCR12 APPROX =   0

   

 *******************************************************************
 *                                                                 *
 *----------                                             >---------*
 *---------- OUTPUT FROM COUPLED CLUSTER ENERGY PROGRAM  >---------*
 *----------                                             >---------*
 *                                                                 *
 *******************************************************************


             The Direct Coupled Cluster Energy Program
             -----------------------------------------


          Number of t1 amplitudes                 :       192
          Number of t2 amplitudes                 :     18528
          Total number of amplitudes in ccsd      :     18720

 Iter.  1: Coupled cluster MP2   energy :    -114.1911572087661710
 Iter.  1: Coupled cluster CCSD  energy :    -114.1931244816842508
 Iter.  2: Coupled cluster CCSD  energy :    -114.2022123360338810
 Iter.  3: Coupled cluster CCSD  energy :    -114.2054401249831272
 Iter.  4: Coupled cluster CCSD  energy :    -114.2051119850832350
 Iter.  5: Coupled cluster CCSD  energy :    -114.2051561207999129
 Iter.  6: Coupled cluster CCSD  energy :    -114.2051605964708756
 Iter.  7: Coupled cluster CCSD  energy :    -114.2051481857595832
 Iter.  8: Coupled cluster CCSD  energy :    -114.2051484582490275
 Iter.  9: Coupled cluster CCSD  energy :    -114.2051485767901369
 Iter. 10: Coupled cluster CCSD  energy :    -114.2051487344592147
 Iter. 11: Coupled cluster CCSD  energy :    -114.2051487231959896
 Iter. 12: Coupled cluster CCSD  energy :    -114.2051487091858206
 Iter. 13: Coupled cluster CCSD  energy :    -114.2051487048229603

 CCSD  energy converged to within   0.10D-07 is         -114.205148704823
 Final 2-norm of the CC vector function:  5.67263857D-07
  Change in norm^2 of T-amplitudes in this solvent it.:   6.3540734366852453E-002





             +-------------------------------------------------------+
             ! Final results from the Coupled Cluster energy program !
             +-------------------------------------------------------+



            Total SCF   energy:                  -113.8914224349

            Total MP2   energy:                  -114.1911572088

            Total CCSD  energy:                  -114.2051487048




                   +--------------------------------------------+
                   ! Calculating singlet intermediates for CCLR !
                   +--------------------------------------------+



            E-intermediates calculated 
            Fock-intermediate calculated 
            Gamma-intermediate calculated 
            BF-intermediate calculated 
            C-intermediate calculated 
            D-intermediate calculated 


   

 *******************************************************************
 *                                                                 *
 *---- OUTPUT FROM COUPLED CLUSTER RESPONSE  -------------*
 *                                                                 *
 *******************************************************************



                         +--------------------------------+
                         ! Coupled Cluster model is: CCSD !
                         +--------------------------------+

  Change in norm^2 of L-amplitudes in this PECC it.:  0.35608594091605417     
 Total <Lambda|H|CC> energy:   -114.20648918187170     
            The singles contribution is:            -0.0006536903
            The doubles contribution is:            -0.0006867868


                            +--------------------------+
                            ! CCSD Natural Occupations !
                            +--------------------------+

  
   Symmetry block number:  1
   ---------------------
  
   1.99993837   1.99983697   1.98457073   1.97242795   1.97212091
   1.96515142   1.96504106   1.93028350   0.06243785   0.02595106
   0.02551781   0.02013244   0.01263099   0.01110381   0.00668275
   0.00642434   0.00624729   0.00551391   0.00494332   0.00435124
   0.00427580   0.00271365   0.00246720   0.00202516   0.00180603
   0.00111986   0.00110383   0.00106125   0.00072152   0.00071157
   0.00045670   0.00022973
  
   Sum in this symmetry class:  16.000000
  
  
   Total Sum of natural occupation numbers:  16.000000
  
   Dynamical correlation move: 0.210629 electrons
  

 ******************************************************************

 **** Output from Polarizable Embedding Coupled Cluster module ****

 ******************************************************************



                       +-----------------------------------+
                       ! The Coupled Cluster model is CCSD !
                       +-----------------------------------+


    .--------------------------------------------------.
    | Final results from polarizable embedding library |
    `--------------------------------------------------´

        Polarizable embedding energy contributions:
       ---------------------------------------------

       Electrostatic contributions:
            Electronic                -0.215236512974
            Nuclear                    0.196503243383
            Multipole                 -0.013384943694
            Total                     -0.032118213285

       Polarization contributions:
            Electronic                -0.067423589634
            Nuclear                    0.063576187945
            Multipole                 -0.005468875472
            Total                     -0.009316277161

       Total PE energy:               -0.028049546752
            (excl. multipole-multipole interaction energy)


                    +-----------------------------------------+
                    ! Writing the Fock matrix to FOCKMAT file !
                    +-----------------------------------------+

 E(PECC) contribution in iteration           0 :   -2.8049546751985465E-002
  
   

 *******************************************************************
 *                                                                 *
 *----------                                             >---------*
 *---------- OUTPUT FROM COUPLED CLUSTER ENERGY PROGRAM  >---------*
 *----------                                             >---------*
 *                                                                 *
 *******************************************************************


             The Direct Coupled Cluster Energy Program
             -----------------------------------------


          Number of t1 amplitudes                 :       192
          Number of t2 amplitudes                 :     18528
          Total number of amplitudes in ccsd      :     18720

 Iter.  1: Coupled cluster RSTAR energy :    -114.2051487048229603
 Iter.  1: Coupled cluster CCSD  energy :    -114.2051507914632111
 Iter.  2: Coupled cluster CCSD  energy :    -114.2051725441521910
 Iter.  3: Coupled cluster CCSD  energy :    -114.2051692943281438
 Iter.  4: Coupled cluster CCSD  energy :    -114.2051730163784953
 Iter.  5: Coupled cluster CCSD  energy :    -114.2051729665383704
 Iter.  6: Coupled cluster CCSD  energy :    -114.2051731191171910
 Iter.  7: Coupled cluster CCSD  energy :    -114.2051731941729145
 Iter.  8: Coupled cluster CCSD  energy :    -114.2051731905282850

 CCSD  energy converged to within   0.10D-07 is         -114.205173190528
 Final 2-norm of the CC vector function:  4.70468846D-07
  Change in norm^2 of T-amplitudes in this solvent it.:   1.2017976441203171E-004





             +-------------------------------------------------------+
             ! Final results from the Coupled Cluster energy program !
             +-------------------------------------------------------+



            Total SCF   energy:                  -113.8914224349

            Total RSTAR energy:                  -114.2051487048

            Total CCSD  energy:                  -114.2051731905




                   +--------------------------------------------+
                   ! Calculating singlet intermediates for CCLR !
                   +--------------------------------------------+



            E-intermediates calculated 
            Fock-intermediate calculated 
            Gamma-intermediate calculated 
            BF-intermediate calculated 
            C-intermediate calculated 
            D-intermediate calculated 


   

 *******************************************************************
 *                                                                 *
 *---- OUTPUT FROM COUPLED CLUSTER RESPONSE  -------------*
 *                                                                 *
 *******************************************************************



                         +--------------------------------+
                         ! Coupled Cluster model is: CCSD !
                         +--------------------------------+

 Vector nr.  1 of symmetry  1 found on file - RESTART SUCCESS
 Start vector is a CCSD      L0  vector
  Change in norm^2 of L-amplitudes in this PECC it.:   2.6902813122031688E-004
 Total <Lambda|H|CC> energy:   -114.20655644386002     
            The singles contribution is:            -0.0007059974
            The doubles contribution is:            -0.0006772559


                            +--------------------------+
                            ! CCSD Natural Occupations !
                            +--------------------------+

  
   Symmetry block number:  1
   ---------------------
  
   1.99993838   1.99983696   1.98456754   1.97241856   1.97211715
   1.96513956   1.96503441   1.93020162   0.06252261   0.02597015
   0.02553548   0.02014464   0.01261712   0.01109767   0.00668127
   0.00642270   0.00624640   0.00551513   0.00494258   0.00435048
   0.00427567   0.00271528   0.00246660   0.00202479   0.00180754
   0.00112052   0.00110395   0.00106192   0.00072226   0.00071319
   0.00045796   0.00022993
  
   Sum in this symmetry class:  16.000000
  
  
   Total Sum of natural occupation numbers:  16.000000
  
   Dynamical correlation move: 0.210746 electrons
  

 ******************************************************************

 **** Output from Polarizable Embedding Coupled Cluster module ****

 ******************************************************************



                       +-----------------------------------+
                       ! The Coupled Cluster model is CCSD !
                       +-----------------------------------+


    .--------------------------------------------------.
    | Final results from polarizable embedding library |
    `--------------------------------------------------´

        Polarizable embedding energy contributions:
       ---------------------------------------------

       Electrostatic contributions:
            Electronic                -0.215132787937
            Nuclear                    0.196503243383
            Multipole                 -0.013384943694
            Total                     -0.032014488248

       Polarization contributions:
            Electronic                -0.067123129111
            Nuclear                    0.063309156351
            Multipole                 -0.005460511158
            Total                     -0.009274483918

       Total PE energy:               -0.027904028472
            (excl. multipole-multipole interaction energy)


                    +-----------------------------------------+
                    ! Writing the Fock matrix to FOCKMAT file !
                    +-----------------------------------------+

 E(PECC) contribution in iteration           1 :   -2.7904028472072739E-002
  
   

 *******************************************************************
 *                                                                 *
 *----------                                             >---------*
 *---------- OUTPUT FROM COUPLED CLUSTER ENERGY PROGRAM  >---------*
 *----------                                             >---------*
 *                                                                 *
 *******************************************************************


             The Direct Coupled Cluster Energy Program
             -----------------------------------------


          Number of t1 amplitudes                 :       192
          Number of t2 amplitudes                 :     18528
          Total number of amplitudes in ccsd      :     18720

 Iter.  1: Coupled cluster RSTAR energy :    -114.2051731905282850
 Iter.  1: Coupled cluster CCSD  energy :    -114.2051732895754412
 Iter.  2: Coupled cluster CCSD  energy :    -114.2051743126516925
 Iter.  3: Coupled cluster CCSD  energy :    -114.2051741561916600
 Iter.  4: Coupled cluster CCSD  energy :    -114.2051743341295662
 Iter.  5: Coupled cluster CCSD  energy :    -114.2051743315582399

 CCSD  energy converged to within   0.10D-07 is         -114.205174331558
 Final 2-norm of the CC vector function:  5.55293940D-07
  Change in norm^2 of T-amplitudes in this solvent it.:   5.7262185562956258E-006





             +-------------------------------------------------------+
             ! Final results from the Coupled Cluster energy program !
             +-------------------------------------------------------+



            Total SCF   energy:                  -113.8914224349

            Total RSTAR energy:                  -114.2051731905

            Total CCSD  energy:                  -114.2051743316




                   +--------------------------------------------+
                   ! Calculating singlet intermediates for CCLR !
                   +--------------------------------------------+



            E-intermediates calculated 
            Fock-intermediate calculated 
            Gamma-intermediate calculated 
            BF-intermediate calculated 
            C-intermediate calculated 
            D-intermediate calculated 


   

 *******************************************************************
 *                                                                 *
 *---- OUTPUT FROM COUPLED CLUSTER RESPONSE  -------------*
 *                                                                 *
 *******************************************************************



                         +--------------------------------+
                         ! Coupled Cluster model is: CCSD !
                         +--------------------------------+

 Vector nr.  1 of symmetry  1 found on file - RESTART SUCCESS
 Start vector is a CCSD      L0  vector
  Change in norm^2 of L-amplitudes in this PECC it.:   1.2628006549664228E-005
 Total <Lambda|H|CC> energy:   -114.20655959351106     
            The singles contribution is:            -0.0007084591
            The doubles contribution is:            -0.0006768029


                            +--------------------------+
                            ! CCSD Natural Occupations !
                            +--------------------------+

  
   Symmetry block number:  1
   ---------------------
  
   1.99993838   1.99983696   1.98456737   1.97241812   1.97211696
   1.96513897   1.96503408   1.93019784   0.06252652   0.02597110
   0.02553629   0.02014522   0.01261646   0.01109739   0.00668119
   0.00642264   0.00624636   0.00551519   0.00494254   0.00435045
   0.00427567   0.00271536   0.00246657   0.00202477   0.00180762
   0.00112055   0.00110396   0.00106195   0.00072229   0.00071327
   0.00045802   0.00022994
  
   Sum in this symmetry class:  16.000000
  
  
   Total Sum of natural occupation numbers:  16.000000
  
   Dynamical correlation move: 0.210751 electrons
  

 ******************************************************************

 **** Output from Polarizable Embedding Coupled Cluster module ****

 ******************************************************************



                       +-----------------------------------+
                       ! The Coupled Cluster model is CCSD !
                       +-----------------------------------+


    .--------------------------------------------------.
    | Final results from polarizable embedding library |
    `--------------------------------------------------´

        Polarizable embedding energy contributions:
       ---------------------------------------------

       Electrostatic contributions:
            Electronic                -0.215127827317
            Nuclear                    0.196503243383
            Multipole                 -0.013384943694
            Total                     -0.032009527627

       Polarization contributions:
            Electronic                -0.067108144816
            Nuclear                    0.063295777601
            Multipole                 -0.005460114117
            Total                     -0.009272481331

       Total PE energy:               -0.027897065265
            (excl. multipole-multipole interaction energy)


                    +-----------------------------------------+
                    ! Writing the Fock matrix to FOCKMAT file !
                    +-----------------------------------------+

 E(PECC) contribution in iteration           2 :   -2.7897065264632124E-002
  
   

 *******************************************************************
 *                                                                 *
 *----------                                             >---------*
 *---------- OUTPUT FROM COUPLED CLUSTER ENERGY PROGRAM  >---------*
 *----------                                             >---------*
 *                                                                 *
 *******************************************************************


             The Direct Coupled Cluster Energy Program
             -----------------------------------------


          Number of t1 amplitudes                 :       192
          Number of t2 amplitudes                 :     18528
          Total number of amplitudes in ccsd      :     18720

 Iter.  1: Coupled cluster RSTAR energy :    -114.2051743315582399
 Iter.  1: Coupled cluster CCSD  energy :    -114.2051743436265667
 Iter.  2: Coupled cluster CCSD  energy :    -114.2051743937047377
 Iter.  3: Coupled cluster CCSD  energy :    -114.2051743878551378

 CCSD  energy converged to within   0.10D-07 is         -114.205174387855
 Final 2-norm of the CC vector function:  2.64240999D-07
  Change in norm^2 of T-amplitudes in this solvent it.:   2.8390849322879053E-007





             +-------------------------------------------------------+
             ! Final results from the Coupled Cluster energy program !
             +-------------------------------------------------------+



            Total SCF   energy:                  -113.8914224349

            Total RSTAR energy:                  -114.2051743316

            Total CCSD  energy:                  -114.2051743879




                   +--------------------------------------------+
                   ! Calculating singlet intermediates for CCLR !
                   +--------------------------------------------+



            E-intermediates calculated 
            Fock-intermediate calculated 
            Gamma-intermediate calculated 
            BF-intermediate calculated 
            C-intermediate calculated 
            D-intermediate calculated 


   

 *******************************************************************
 *                                                                 *
 *---- OUTPUT FROM COUPLED CLUSTER RESPONSE  -------------*
 *                                                                 *
 *******************************************************************



                         +--------------------------------+
                         ! Coupled Cluster model is: CCSD !
                         +--------------------------------+

 Vector nr.  1 of symmetry  1 found on file - RESTART SUCCESS
 Start vector is a CCSD      L0  vector
  Change in norm^2 of L-amplitudes in this PECC it.:   1.0402036898504718E-008
 Total <Lambda|H|CC> energy:   -114.20655958382144     
            The singles contribution is:            -0.0007084292
            The doubles contribution is:            -0.0006767668


                            +--------------------------+
                            ! CCSD Natural Occupations !
                            +--------------------------+

  
   Symmetry block number:  1
   ---------------------
  
   1.99993838   1.99983696   1.98456737   1.97241811   1.97211696
   1.96513895   1.96503407   1.93019773   0.06252664   0.02597112
   0.02553631   0.02014523   0.01261644   0.01109739   0.00668119
   0.00642264   0.00624636   0.00551519   0.00494254   0.00435045
   0.00427567   0.00271536   0.00246657   0.00202477   0.00180762
   0.00112056   0.00110396   0.00106195   0.00072229   0.00071327
   0.00045802   0.00022994
  
   Sum in this symmetry class:  16.000000
  
  
   Total Sum of natural occupation numbers:  16.000000
  
   Dynamical correlation move: 0.210751 electrons
  

 ******************************************************************

 **** Output from Polarizable Embedding Coupled Cluster module ****

 ******************************************************************



                       +-----------------------------------+
                       ! The Coupled Cluster model is CCSD !
                       +-----------------------------------+


    .--------------------------------------------------.
    | Final results from polarizable embedding library |
    `--------------------------------------------------´

        Polarizable embedding energy contributions:
       ---------------------------------------------

       Electrostatic contributions:
            Electronic                -0.215127699242
            Nuclear                    0.196503243383
            Multipole                 -0.013384943694
            Total                     -0.032009399552

       Polarization contributions:
            Electronic                -0.067107748160
            Nuclear                    0.063295422671
            Multipole                 -0.005460103813
            Total                     -0.009272429303

       Total PE energy:               -0.027896885161
            (excl. multipole-multipole interaction energy)


                    +-----------------------------------------+
                    ! Writing the Fock matrix to FOCKMAT file !
                    +-----------------------------------------+

 E(PECC) contribution in iteration           3 :   -2.7896885161129141E-002
  
   

 *******************************************************************
 *                                                                 *
 *----------                                             >---------*
 *---------- OUTPUT FROM COUPLED CLUSTER ENERGY PROGRAM  >---------*
 *----------                                             >---------*
 *                                                                 *
 *******************************************************************


             The Direct Coupled Cluster Energy Program
             -----------------------------------------


          Number of t1 amplitudes                 :       192
          Number of t2 amplitudes                 :     18528
          Total number of amplitudes in ccsd      :     18720

 Iter.  1: Coupled cluster RSTAR energy :    -114.2051743878551378
 Iter.  1: Coupled cluster CCSD  energy :    -114.2051743950989504

 CCSD  energy converged to within   0.10D-07 is         -114.205174395099
 Final 2-norm of the CC vector function:  1.12573059D-07
  Change in norm^2 of T-amplitudes in this solvent it.:   1.5607996214916930E-008





             +-------------------------------------------------------+
             ! Final results from the Coupled Cluster energy program !
             +-------------------------------------------------------+



            Total SCF   energy:                  -113.8914224349

            Total RSTAR energy:                  -114.2051743879

            Total CCSD  energy:                  -114.2051743951




                   +--------------------------------------------+
                   ! Calculating singlet intermediates for CCLR !
                   +--------------------------------------------+



            E-intermediates calculated 
            Fock-intermediate calculated 
            Gamma-intermediate calculated 
            BF-intermediate calculated 
            C-intermediate calculated 
            D-intermediate calculated 


   

 *******************************************************************
 *                                                                 *
 *---- OUTPUT FROM COUPLED CLUSTER RESPONSE  -------------*
 *                                                                 *
 *******************************************************************



                         +--------------------------------+
                         ! Coupled Cluster model is: CCSD !
                         +--------------------------------+

 Vector nr.  1 of symmetry  1 found on file - RESTART SUCCESS
 Start vector is a CCSD      L0  vector
  Change in norm^2 of L-amplitudes in this PECC it.:  -1.3289365718982538E-009
 Total <Lambda|H|CC> energy:   -114.20655959963766     
            The singles contribution is:            -0.0007084226
            The doubles contribution is:            -0.0006767819


                            +--------------------------+
                            ! CCSD Natural Occupations !
                            +--------------------------+

  
   Symmetry block number:  1
   ---------------------
  
   1.99993838   1.99983696   1.98456737   1.97241810   1.97211696
   1.96513895   1.96503407   1.93019772   0.06252665   0.02597112
   0.02553631   0.02014523   0.01261644   0.01109739   0.00668119
   0.00642264   0.00624636   0.00551520   0.00494254   0.00435045
   0.00427567   0.00271536   0.00246657   0.00202477   0.00180762
   0.00112056   0.00110396   0.00106195   0.00072229   0.00071327
   0.00045802   0.00022994
  
   Sum in this symmetry class:  16.000000
  
  
   Total Sum of natural occupation numbers:  16.000000
  
   Dynamical correlation move: 0.210751 electrons
  

 ******************************************************************

 **** Output from Polarizable Embedding Coupled Cluster module ****

 ******************************************************************



                       +-----------------------------------+
                       ! The Coupled Cluster model is CCSD !
                       +-----------------------------------+


    .--------------------------------------------------.
    | Final results from polarizable embedding library |
    `--------------------------------------------------´

        Polarizable embedding energy contributions:
       ---------------------------------------------

       Electrostatic contributions:
            Electronic                -0.215127696351
            Nuclear                    0.196503243383
            Multipole                 -0.013384943694
            Total                     -0.032009396661

       Polarization contributions:
            Electronic                -0.067107740243
            Nuclear                    0.063295415677
            Multipole                 -0.005460103578
            Total                     -0.009272428144

       Total PE energy:               -0.027896881111
            (excl. multipole-multipole interaction energy)


                    +-----------------------------------------+
                    ! Writing the Fock matrix to FOCKMAT file !
                    +-----------------------------------------+

 E(PECC) contribution in iteration           4 :   -2.7896881111226707E-002
 PECC equations are converged in            4  outer iterations
 PECC equations are converged in           55  inner iterations
  
   

 *******************************************************************
 *                                                                 *
 *---------- OUTPUT FROM COUPLED CLUSTER LINEAR RESPONSE >---------*
 *                                                                 *
 *----------     CALCULATION OF EXCITATION ENERGIES      >---------*
 *                                                                 *
 *******************************************************************



                           +---------------------------+
                           !  CCSD Excitation Energies !
                           +---------------------------+


 --------------------------
 Symmetry class Nr.:     1
 Multiplicity      :     1
 --------------------------

 Length of Excitation vectors in this class is:     18720
 Converging for  2 roots.
 Vector nr.  1 of type RE  and symmetry  1 was not found on file.
 Start vector guessed from diagonal
 ... selected element no.169
 Vector nr.  2 of type RE  and symmetry  1 was not found on file.
 Start vector guessed from diagonal
 ... selected element no.145


 SYMMETRY CLASS NR.    1
 MULTIPLICITY          1


 CCSD       right excitation energies:
 ====================================
 (conversion factor used: 1 au = 27.2113957 eV)

 Excitation no.       Hartree               eV 
 --------------       -------               --
         1            0.1601059863        4.3567055073
         2            0.3591655019        9.7733904684


 Total excited state energies for states of symmetry/spin    1    1
 Excitation no.       Energy (Hartree) 
 ------------------------------------- 
@@    1    1          -114.046453613345165
@@    1    2          -113.847394097692117


 Analysis of the Coupled Cluster Excitation Vector Number :  1
 -------------------------------------------------------------

          Excitation Energy :                             4.3567 eV


          CC_PRAM:Overall Contribution of the Different Components
          --------------------------------------------------------



          Single Excitation Contribution :              93.5593 %

          Double Excitation Contribution :               6.4407 %

          ||T1||/||T2||                  :               3.8113

          Norm of Total Amplitude Vector :               1.0000


 +=============================================================================+
 | symmetry|  orbital index  |   Excitation Numbers             |   Amplitude  |
 |  Index  |   a   b   i   j |      NAI      NBJ |     NAIBJ    |              |
 +=============================================================================+
 | 1   1   |   1       8     |      169          |              |    0.950393  |
 +-----------------------------------------------------------------------------+
 | 1 1 1 1 |   1   1   7   5 |      145       97 |        10537 |   -0.097717  |
 | 1 1 1 1 |   1   1   8   7 |      169      145 |        14341 |    0.145254  |
 +=============================================================================+


          Norm of Printed Amplitude Vector :             0.9664

          Printed all single excitations greater than 0.193452

          Printed all double excitations greater than 0.050757


 Analysis of the Coupled Cluster Excitation Vector Number :  2
 -------------------------------------------------------------

          Excitation Energy :                             9.7734 eV


          CC_PRAM:Overall Contribution of the Different Components
          --------------------------------------------------------



          Single Excitation Contribution :              93.5265 %

          Double Excitation Contribution :               6.4735 %

          ||T1||/||T2||                  :               3.8010

          Norm of Total Amplitude Vector :               1.0000


 +=============================================================================+
 | symmetry|  orbital index  |   Excitation Numbers             |   Amplitude  |
 |  Index  |   a   b   i   j |      NAI      NBJ |     NAIBJ    |              |
 +=============================================================================+
 | 1   1   |   1       6     |      121          |              |    0.954143  |
 +-----------------------------------------------------------------------------+
 | 1 1 1 1 |   1   1   7   4 |      145       73 |        10513 |   -0.090031  |
 | 1 1 1 1 |   1   1   7   6 |      145      121 |        10561 |    0.157075  |
 +=============================================================================+


          Norm of Printed Amplitude Vector :             0.9712

          Printed all single excitations greater than 0.193418

          Printed all double excitations greater than 0.050886

 --------------------------
 Symmetry class Nr.:     1
 Multiplicity      :     3
 --------------------------

 Length of Excitation vectors in this class is:     37248
 No Excitation Energies calculated in this symmetry class
   

 *******************************************************************
 *                                                                 *
 *---------- OUTPUT FROM COUPLED CLUSTER LINEAR RESPONSE >---------*
 *                                                                 *
 *----------     CALCULATION OF EXCITATION ENERGIES      >---------*
 *                                                                 *
 *******************************************************************



                           +---------------------------+
                           !  CCSD Excitation Energies !
                           +---------------------------+


 --------------------------
 Symmetry class Nr.:     1
 Multiplicity      :     1
 --------------------------

 Length of Excitation vectors in this class is:     18720
 Converging for  2 roots.
 Vector nr.  1 of type LE  and symmetry  1 was not found on file.
Try to use right eigenvector as start for a left eigenvector.
 Vector nr.  1 of symmetry  1 found on file - RESTART SUCCESS
 Start vector is a  CCSD      RE vector
 Vector nr.  2 of type LE  and symmetry  1 was not found on file.
Try to use right eigenvector as start for a left eigenvector.
 Vector nr.  2 of symmetry  1 found on file - RESTART SUCCESS
 Start vector is a  CCSD      RE vector


 SYMMETRY CLASS NR.    1
 MULTIPLICITY          1


 CCSD       left excitation energies:
 ====================================
 (conversion factor used: 1 au = 27.2113957 eV)

 Excitation no.       Hartree               eV 
 --------------       -------               --
         1            0.1601058987        4.3567031248
         2            0.3591652266        9.7733829763


 Total excited state energies for states of symmetry/spin    1    1
 Excitation no.       Energy (Hartree) 
 ------------------------------------- 
@@    1    1          -114.046453700899875
@@    1    2          -113.847394373022169


 Analysis of the Coupled Cluster Excitation Vector Number :  1
 -------------------------------------------------------------

          Excitation Energy :                             4.3567 eV


          CC_PRAM:Overall Contribution of the Different Components
          --------------------------------------------------------



          Single Excitation Contribution :              88.4109 %

          Double Excitation Contribution :              11.5891 %

          ||T1||/||T2||                  :               2.7620

          Norm of Total Amplitude Vector :               1.0000


 +=============================================================================+
 | symmetry|  orbital index  |   Excitation Numbers             |   Amplitude  |
 |  Index  |   a   b   i   j |      NAI      NBJ |     NAIBJ    |              |
 +=============================================================================+
 | 1   1   |   1       8     |      169          |              |    0.925167  |
 +-----------------------------------------------------------------------------+
 | 1 1 1 1 |   1   1   7   5 |      145       97 |        10537 |   -0.106223  |
 | 1 1 1 1 |   1   1   8   7 |      169      145 |        14341 |    0.135422  |
 +=============================================================================+


          Norm of Printed Amplitude Vector :             0.9410

          Printed all single excitations greater than 0.188054

          Printed all double excitations greater than 0.068085


 Analysis of the Coupled Cluster Excitation Vector Number :  2
 -------------------------------------------------------------

          Excitation Energy :                             9.7734 eV


          CC_PRAM:Overall Contribution of the Different Components
          --------------------------------------------------------



          Single Excitation Contribution :              88.2340 %

          Double Excitation Contribution :              11.7660 %

          ||T1||/||T2||                  :               2.7384

          Norm of Total Amplitude Vector :               1.0000


 +=============================================================================+
 | symmetry|  orbital index  |   Excitation Numbers             |   Amplitude  |
 |  Index  |   a   b   i   j |      NAI      NBJ |     NAIBJ    |              |
 +=============================================================================+
 | 1   1   |   1       6     |      121          |              |    0.928090  |
 +-----------------------------------------------------------------------------+
 | 1 1 1 1 |   1   1   7   4 |      145       73 |        10513 |   -0.097544  |
 | 1 1 1 1 |   1   1   7   6 |      145      121 |        10561 |    0.149386  |
 | 1 1 1 1 |  12   1   7   6 |      156      121 |        12211 |    0.069427  |
 +=============================================================================+


          Norm of Printed Amplitude Vector :             0.9476

          Printed all single excitations greater than 0.187866

          Printed all double excitations greater than 0.068603



+======================================================================+
| contributions of excitation levels to right eigenvectors as computed |
| from the (RE|RE) self overlap                                        |
+----------------------------------------------------------------------+
| sym | multi | state |    E / eV  | % singles | % doubles | % triples |
+======================================================================+
|    1|   1   |   1   |    4.35671 |  93.5593  |   6.4407  |   0.0000  |
|    1|   1   |   2   |    9.77339 |  93.5265  |   6.4735  |   0.0000  |
+======================================================================+





+======================================================================+
| contributions of excitation levels to excited states as computed     |
| from the (LE|RE) overlap                                             |
+----------------------------------------------------------------------+
| sym | multi | state |    E / eV  | % singles | % doubles | % triples |
+======================================================================+
|    1|   1   |   1   |    4.35671 |  92.3980  |   7.6020  |   0.0000  |
|    1|   1   |   2   |    9.77339 |  92.3232  |   7.6768  |   0.0000  |
+======================================================================+



 --------------------------
 Symmetry class Nr.:     1
 Multiplicity      :     3
 --------------------------

 Length of Excitation vectors in this class is:     37248
 No Excitation Energies calculated in this symmetry class
     

   *******************************************************************
   *                                                                 *
   *--------   OUTPUT FROM PROPERTY AND SYMMETRY ANALYSIS   ---------*
   *                                                                 *
   *******************************************************************



                         +-------------------------------+
                         ! REQUESTED PROPERTY OPERATORS: !
                         +-------------------------------+

             Index   Oper. Label  Symmetry  Transp.  PDBS  Atom
             --------------------------------------------------
                1     HAM0            1        1      T      0
                2     XDIPLEN         1        1      F      0
                3     YDIPLEN         1        1      F      0
                4     ZDIPLEN         1        1      F      0
             --------------------------------------------------




                         +-------------------------------+
                         ! REQUESTED EXPECTATION VALUES: !
                         +-------------------------------+

                       Index   Oper. Label  Symmetry
                       -----------------------------
                       -----------------------------




                       +------------------------------------+
                       ! REQUESTED EFFECTIVE FOCK MATRICES: !
                       +------------------------------------+

                       Index   Oper. Label  Symmetry
                       -----------------------------
                       -----------------------------




                        +----------------------------------+
                        ! REQUESTED FIRST ORDER M-VECTORS: !
                        +----------------------------------+

               Index   State Symmetry  Frequency
               --------------------------------------------------
                  1             1    1     1.601060D-01
                  2             2    1     3.591655D-01
               --------------------------------------------------


      

    *******************************************************************
    *          SOLVING COUPLED CLUSTER RESPONSE EQUATIONS             *
    *******************************************************************



 
 +======================================================================+
 !                     RHS & ETA VECTORS TO COMPUTE:                    !
 +======================================================================+
 | TYPE | # VEC. |  NEEDED FOR:                                         |
 +----------------------------------------------------------------------+
 +======================================================================+



 +======================================================================+
 !                       LINEAR EQUATIONS TO SOLVE:                     !
 +======================================================================+
 | TYPE | # VEC. |  EQUATION:                                           |
 +----------------------------------------------------------------------+
 |  M1  |    2   |  first-order ground - excited state multipliers      |
 +======================================================================+



 +======================================================================+
 !                F MATRIX TRANSFORMATIONS TO COMPUTE:                  !
 +======================================================================+
 | TYPE | # VEC. |  TRANSFORMED:                                        |
 +----------------------------------------------------------------------+
 |  FR  |    2   |  right eigenvectors (RE)                             |
 +======================================================================+





 Testing R1 list: 

 List nr.  Label     Symmetry      Frequency      T1-norm        T2-norm


 Testing L1 list: 

 List nr.  Label     Symmetry      Frequency      T1-norm        T2-norm
  Solvent 1-order response equations converged in           0  solvent iterations
 Vector nr.  1 of type M1  and symmetry  1 was not found on file.
 Vector nr.  2 of type M1  and symmetry  1 was not found on file.

 Solution of CC response equations completed.


 *******************************************************************
 *                                                                 *
 *--------  OUTPUT FROM COUPLED CLUSTER LINEAR RESPONSE   ---------*
 *                                                                 *
 *--------      CALCULATION OF SECOND ORDER RESIDUES      ---------*
 *                                                                 *
 *******************************************************************



                  +---------------------------------------------+
                  ! CC_SOPR: Calculation of CCSD       Residues !
                  +---------------------------------------------+

 Doing the Mf*CsiA
 Doing the Mf*CsiA
 Doing the Mf*CsiA


 CCSD  Right transition moments in atomic units:
 -----------------------------------------------

  1       0.160106  <XDIPLEN |f> =      -0.00107011
  2       0.359166  <XDIPLEN |f> =       0.00013556
  1       0.160106  <YDIPLEN |f> =       0.00043590
  2       0.359166  <YDIPLEN |f> =       0.00047611
  1       0.160106  <ZDIPLEN |f> =      -0.00679567
  2       0.359166  <ZDIPLEN |f> =       0.09960529


 CCSD  Left  transition moments in atomic units:
 -----------------------------------------------

  1       0.160106  <f|XDIPLEN > =      -0.00056257
  2       0.359166  <f|XDIPLEN > =      -0.00002622
  1       0.160106  <f|YDIPLEN > =       0.00037933
  2       0.359166  <f|YDIPLEN > =       0.00041487
  1       0.160106  <f|ZDIPLEN > =      -0.00408364
  2       0.359166  <f|ZDIPLEN > =       0.05739094


 CCSD  linear response residue property in atomic units:
 -------------------------------------------------------

 RES{<<XDIPLEN ,XDIPLEN >>( 0.160106)} =     0.00000060 (   0.00077589)
 RES{<<XDIPLEN ,XDIPLEN >>( 0.359166)} =    -0.00000000 (  -0.00005962)
 RES{<<XDIPLEN ,YDIPLEN >>( 0.160106)} =    -0.00000033 (  -0.00057059)
 RES{<<XDIPLEN ,YDIPLEN >>( 0.359166)} =     0.00000002 (   0.00014792)
 RES{<<XDIPLEN ,ZDIPLEN >>( 0.160106)} =     0.00000410 (   0.00202398)
 RES{<<XDIPLEN ,ZDIPLEN >>( 0.359166)} =     0.00000258 (   0.00160759)
 RES{<<YDIPLEN ,XDIPLEN >>( 0.160106)} =    -0.00000033 (  -0.00057059)
 RES{<<YDIPLEN ,XDIPLEN >>( 0.359166)} =     0.00000002 (   0.00014792)
 RES{<<YDIPLEN ,YDIPLEN >>( 0.160106)} =     0.00000017 (   0.00040663)
 RES{<<YDIPLEN ,YDIPLEN >>( 0.359166)} =     0.00000020 (   0.00044444)
 RES{<<YDIPLEN ,ZDIPLEN >>( 0.160106)} =    -0.00000218 (  -0.00147612)
 RES{<<YDIPLEN ,ZDIPLEN >>( 0.359166)} =     0.00003432 (   0.00585867)
 RES{<<ZDIPLEN ,XDIPLEN >>( 0.160106)} =     0.00000410 (   0.00202398)
 RES{<<ZDIPLEN ,XDIPLEN >>( 0.359166)} =     0.00000258 (   0.00160759)
 RES{<<ZDIPLEN ,YDIPLEN >>( 0.160106)} =    -0.00000218 (  -0.00147612)
 RES{<<ZDIPLEN ,YDIPLEN >>( 0.359166)} =     0.00003432 (   0.00585867)
 RES{<<ZDIPLEN ,ZDIPLEN >>( 0.160106)} =     0.00002775 (   0.00526793)
 RES{<<ZDIPLEN ,ZDIPLEN >>( 0.359166)} =     0.00571644 (   0.07560715)


 CCSD  Transition strength matrix for state nr.  1 of symmetry 1
 CCSD  excitation energy: 0.16010599

 Gauge: length

               Column   1     Column   2     Column   3
       1     6.020117E-07  -3.255757E-07   4.096494E-06
       2    -3.255757E-07   1.653509E-07  -2.178937E-06
       3     4.096494E-06  -2.178937E-06   2.775109E-05
    ==== End of matrix output ====

 Principal values of diagonalized transition strength matrix:

             a.u.               
 1      -0.00000001
 2       0.00000000
 3       0.00002853

 Principal axis of diagonalized transition strength matrix:


               Column   1     Column   2     Column   3
       1       0.56287285     0.81361986     0.14559151
       2       0.82634307    -0.55781640    -0.07744668
       3      -0.01820117    -0.16390117     0.98630884
    ==== End of matrix output ====


 CCSD   oscillator strength matrix for state nr.  1 of symmetry 1
 CCSD  excitation energy: 0.16010599


               Column   1     Column   2     Column   3
       1     6.425712E-08  -3.475108E-08   4.372488E-07
       2    -3.475108E-08   1.764912E-08  -2.325739E-07
       3     4.372488E-07  -2.325739E-07   2.962077E-06
    ==== End of matrix output ====

 Principal values of diagonalized oscillator strength matrix:

             a.u.               
 1      -0.00000000
 2      -0.00000000
 3       0.00000304

 Principal axis of diagonalized oscillator strength matrix:


               Column   1     Column   2     Column   3
       1       0.56287285     0.81361986     0.14559151
       2       0.82634307    -0.55781640    -0.07744668
       3      -0.01820117    -0.16390117     0.98630884
    ==== End of matrix output ====


 CCSD  Transition strength matrix for state nr.  2 of symmetry 1
 CCSD  excitation energy: 0.35916550

 Gauge: length

               Column   1     Column   2     Column   3
       1      -0.00000000     0.00000002     0.00000258
       2       0.00000002     0.00000020     0.00003432
       3       0.00000258     0.00003432     0.00571644
    ==== End of matrix output ====

 Principal values of diagonalized transition strength matrix:

             a.u.               
 1      -0.00000001
 2       0.00000000
 3       0.00571665

 Principal axis of diagonalized transition strength matrix:


               Column   1     Column   2     Column   3
       1      -0.59604124     0.80295370     0.00045209
       2       0.80294092     0.59602837     0.00600432
       3      -0.00455173    -0.00394182     0.99998187
    ==== End of matrix output ====


 CCSD   oscillator strength matrix for state nr.  2 of symmetry 1
 CCSD  excitation energy: 0.35916550


               Column   1     Column   2     Column   3
       1      -0.00000000     0.00000001     0.00000062
       2       0.00000001     0.00000005     0.00000822
       3       0.00000062     0.00000822     0.00136877
    ==== End of matrix output ====

 Principal values of diagonalized oscillator strength matrix:

             a.u.               
 1      -0.00000000
 2       0.00000000
 3       0.00136882

 Principal axis of diagonalized oscillator strength matrix:


               Column   1     Column   2     Column   3
       1      -0.59604124     0.80295370     0.00045209
       2       0.80294092     0.59602837     0.00600432
       3      -0.00455173    -0.00394182     0.99998187
    ==== End of matrix output ====

  Total time for     18 linear response residues:       0.01 seconds.
  

 *******************************************************************************
 *******************************************************************************
 *                                                                             *
 *                                                                             *
 *                   SUMMARY OF COUPLED CLUSTER CALCULATION                    *
 *                                                                             *
 *                                                                             *
 *******************************************************************************
 *******************************************************************************

                                                                                
                                                                                
            Total SCF   energy:                  -113.8914224349                
            Total MP2   energy:                  -114.1911572088                
            Total CCSD  energy:                  -114.2051487048                
                                                                                
                                                                                
            Total SCF   energy:                  -113.8914224349                
            Total RSTAR energy:                  -114.2051487048                
            Total CCSD  energy:                  -114.2051731905                
                                                                                
                                                                                
            Total SCF   energy:                  -113.8914224349                
            Total RSTAR energy:                  -114.2051731905                
            Total CCSD  energy:                  -114.2051743316                
                                                                                
                                                                                
            Total SCF   energy:                  -113.8914224349                
            Total RSTAR energy:                  -114.2051743316                
            Total CCSD  energy:                  -114.2051743879                
                                                                                
                                                                                
            Total SCF   energy:                  -113.8914224349                
            Total RSTAR energy:                  -114.2051743879                
            Total CCSD  energy:                  -114.2051743951                
            CCSD Total  energy:                  -114.2344564807                
            CCSD E(PE-CC)     :                    -0.0278968811                
                                                                                
                                                                                
 +=============================================================================+
 |  sym. | Exci.  |        CCSD       Excitation energies            | ||T1||  |
 |(spin, |        +------------------------------------------------------------+
 | spat) |        |     Hartree    |       eV.      |     cm-1       |    %    |
 +=============================================================================+
 | ^1A   |    1   |     0.1601060  |       4.35671  |     35139.202  |  93.56  |
 | ^1A   |    2   |     0.3591655  |       9.77339  |     78827.715  |  93.53  |
 +=============================================================================+
                                                                                
                                                                                
     Total energies in Hartree:                                                 
             1 ^1A       -114.0464536133                                        
             2 ^1A       -113.8473940977                                        
                                                                                
                                                                                
 +=============================================================================+
 |  sym. | Exci.  |        CCSD       Length   Gauge Oscillator Strength       |
 |(spin, |        +------------------------------------------------------------+
 | spat) |        | Dipole Strength(a.u.) | Oscillator strength  | Direction   |
 +=============================================================================+
 | ^1A   |    1   |        0.0000285      |      0.0000030       | unknown     |
 | ^1A   |    2   |        0.0057166      |      0.0013688       | unknown     |
 +=============================================================================+

  1 a.u. =        27.21138 eV.  
  1 a.u. =    219474.62934 cm-1.
  

 *******************************************************************************
 *******************************************************************************
 *                                                                             *
 *                                                                             *
 *                      END OF COUPLED CLUSTER CALCULATION                     *
 *                                                                             *
 *                                                                             *
 *******************************************************************************
 *******************************************************************************


 CPU and wall time for CC :       4.511       4.962

 
     Date and time (Linux)  : Mon Jul 27 23:11:44 2020
     Host name              : localhost.localdomain                   


                      .-------------------------------------.
                      | End of Coupled Cluster Section (CC) |
                      `-------------------------------------'

  Total CPU  time used in DALTON:   4.68 seconds
  Total wall time used in DALTON:   5.13 seconds

 
     Date and time (Linux)  : Mon Jul 27 23:11:44 2020
     Host name              : localhost.localdomain                   
