

     ************************************************************************
     *************** Dalton - An Electronic Structure Program ***************
     ************************************************************************

    This is output from DALTON release Dalton2020.0.1 (2020)
         ( Web site: http://daltonprogram.org )

   ----------------------------------------------------------------------------

    NOTE:
     
    Dalton is an experimental code for the evaluation of molecular
    properties using (MC)SCF, DFT, CI, and CC wave functions.
    The authors accept no responsibility for the performance of
    the code or for the correctness of the results.
     
    The code (in whole or part) is provided under a licence and
    is not to be reproduced for further distribution without
    the written permission of the authors or their representatives.
     
    See the home page "http://daltonprogram.org" for further information.
     
    If results obtained with this code are published,
    the appropriate citations would be both of:
     
       K. Aidas, C. Angeli, K. L. Bak, V. Bakken, R. Bast,
       L. Boman, O. Christiansen, R. Cimiraglia, S. Coriani,
       P. Dahle, E. K. Dalskov, U. Ekstroem,
       T. Enevoldsen, J. J. Eriksen, P. Ettenhuber, B. Fernandez,
       L. Ferrighi, H. Fliegl, L. Frediani, K. Hald, A. Halkier,
       C. Haettig, H. Heiberg, T. Helgaker, A. C. Hennum,
       H. Hettema, E. Hjertenaes, S. Hoest, I.-M. Hoeyvik,
       M. F. Iozzi, B. Jansik, H. J. Aa. Jensen, D. Jonsson,
       P. Joergensen, J. Kauczor, S. Kirpekar,
       T. Kjaergaard, W. Klopper, S. Knecht, R. Kobayashi, H. Koch,
       J. Kongsted, A. Krapp, K. Kristensen, A. Ligabue,
       O. B. Lutnaes, J. I. Melo, K. V. Mikkelsen, R. H. Myhre,
       C. Neiss, C. B. Nielsen, P. Norman, J. Olsen,
       J. M. H. Olsen, A. Osted, M. J. Packer, F. Pawlowski,
       T. B. Pedersen, P. F. Provasi, S. Reine, Z. Rinkevicius,
       T. A. Ruden, K. Ruud, V. Rybkin, P. Salek, C. C. M. Samson,
       A. Sanchez de Meras, T. Saue, S. P. A. Sauer,
       B. Schimmelpfennig, K. Sneskov, A. H. Steindal,
       K. O. Sylvester-Hvid, P. R. Taylor, A. M. Teale,
       E. I. Tellgren, D. P. Tew, A. J. Thorvaldsen, L. Thoegersen,
       O. Vahtras, M. A. Watson, D. J. D. Wilson, M. Ziolkowski
       and H. Agren,
       "The Dalton quantum chemistry program system",
       WIREs Comput. Mol. Sci. 2014, 4:269–284 (doi: 10.1002/wcms.1172)
     
    and
     
       Dalton, a molecular electronic structure program,
       Release Dalton2020.0.1 (2020), see http://daltonprogram.org
   ----------------------------------------------------------------------------

    Authors in alphabetical order (Major contribution(s) in parenthesis):

  Kestutis Aidas,           Vilnius University,           Lithuania   (QM/MM)
  Celestino Angeli,         University of Ferrara,        Italy       (NEVPT2)
  Keld L. Bak,              UNI-C,                        Denmark     (AOSOPPA, non-adiabatic coupling, magnetic properties)
  Vebjoern Bakken,          University of Oslo,           Norway      (DALTON; geometry optimizer, symmetry detection)
  Radovan Bast,             UiT The Arctic U. of Norway,  Norway      (DALTON installation and execution frameworks)
  Pablo Baudin,             University of Valencia,       Spain       (Cholesky excitation energies)
  Linus Boman,              NTNU,                         Norway      (Cholesky decomposition and subsystems)
  Bruno N. Cabral Tenorio,  Technical Univ. of Denmark,   Denmark     (Lanczos-based CC methods)
  Ove Christiansen,         Aarhus University,            Denmark     (CC module)
  Renzo Cimiraglia,         University of Ferrara,        Italy       (NEVPT2)
  Sonia Coriani,            Technical Univ. of Denmark,   Denmark     (CC and RESPONS modules)
  Janusz Cukras,            University of Warsaw,         Poland      (MChD in RESPONS)
  Paal Dahle,               University of Oslo,           Norway      (Parallelization)
  Erik K. Dalskov,          UNI-C,                        Denmark     (SOPPA)
  Thomas Enevoldsen,        Univ. of Southern Denmark,    Denmark     (SOPPA)
  Janus J. Eriksen,         Aarhus University,            Denmark     (Polarizable embedding, TDA)
  Rasmus Faber,             Technical Univ. of Denmark,   Denmark     (Vib.avg. NMR w. SOPPA, parallel AO-SOPPA, CVS-CC and EOMCC)
  Tobias Fahleson,          KTH Stockholm,                Sweden      (Damped cubic response)
  Berta Fernandez,          U. of Santiago de Compostela, Spain       (Doublet spin, ESR in RESPONS)
  Lara Ferrighi,            Aarhus University,            Denmark     (PCM Cubic response)
  Heike Fliegl,             University of Oslo,           Norway      (CCSD(R12))
  Luca Frediani,            UiT The Arctic U. of Norway,  Norway      (PCM)
  Emmanuel Fromager,        Univ. Strasbourg,             France      (MC-srDFT)
  Bin Gao,                  UiT The Arctic U. of Norway,  Norway      (Gen1Int library)
  Andre S. P. Gomes,        CNRS/Universite de Lille,     France      (Frozen density embedding)
  Christof Haettig,         Ruhr-University Bochum,       Germany     (CC module)
  Kasper Hald,              Aarhus University,            Denmark     (CC module)
  Asger Halkier,            Aarhus University,            Denmark     (CC module)
  Frederik Beyer Hansen,    University of Copenhagen,     Denmark     (Parallel AO-SOPPA)
  Erik D. Hedegaard,        Univ. of Southern Denmark,    Denmark     (Polarizable embedding, QM/MM, and MC-srDFT)
  Hanne Heiberg,            University of Oslo,           Norway      (Geometry analysis, selected one-electron integrals)
  Trygve Helgaker,          University of Oslo,           Norway      (DALTON; ABACUS, ERI, DFT modules, London, and much more)
  Alf Christian Hennum,     University of Oslo,           Norway      (Parity violation)
  Hinne Hettema,            University of Auckland,       New Zealand (Quadratic response in RESPONS; SIRIUS supersymmetry)
  Eirik Hjertenaes,         NTNU,                         Norway      (Cholesky decomposition)
  Pi A. B. Haase,           University of Copenhagen,     Denmark     (Triplet AO-SOPPA)
  Maria Francesca Iozzi,    University of Oslo,           Norway      (RPA)
  Christoph Jacob           TU Braunschweig               Germany     (Frozen density embedding)
  Brano Jansik              Technical Univ. of Ostrava    Czech Rep.  (DFT cubic response)
  Hans Joergen Aa. Jensen,  Univ. of Southern Denmark,    Denmark     (DALTON; SIRIUS, RESPONS, ABACUS, MC-srDFT, and much more)
  Dan Jonsson,              UiT The Arctic U. of Norway,  Norway      (Cubic response in RESPONS module)
  Poul Joergensen,          Aarhus University,            Denmark     (RESPONS, ABACUS, and CC modules)
  Maciej Kaminski,          University of Warsaw,         Poland      (CPPh in RESPONS)
  Joanna Kauczor,           Linkoeping University,        Sweden      (Complex polarization propagator (CPP) module)
  Sheela Kirpekar,          Univ. of Southern Denmark,    Denmark     (Mass-velocity & Darwin integrals)
  Erik Kjellgren,           Univ. of Southern Denmark,    Denmark     (MC-srDFT)
  Wim Klopper,              KIT Karlsruhe,                Germany     (R12 code in CC, SIRIUS, and ABACUS modules)
  Stefan Knecht,            ETH Zurich,                   Switzerland (Parallel CI and MCSCF, MC-srDFT)
  Rika Kobayashi,           Australian National Univ.,    Australia   (DIIS in CC, London in MCSCF)
  Henrik Koch,              NTNU,                         Norway      (CC module, Cholesky decomposition)
  Jacob Kongsted,           Univ. of Southern Denmark,    Denmark     (Polarizable embedding, polarizable density embedding, QM/MM)
  Andrea Ligabue,           University of Modena,         Italy       (CTOCD, AOSOPPA)
  Nanna H. List             Univ. of Southern Denmark,    Denmark     (Polarizable embedding)
  Ola B. Lutnaes,           University of Oslo,           Norway      (DFT Hessian)
  Juan I. Melo,             University of Buenos Aires,   Argentina   (LRESC, Relativistic Effects on NMR Shieldings)
  Kurt V. Mikkelsen,        University of Copenhagen,     Denmark     (MC-SCRF and QM/MM)
  Rolf H. Myhre,            NTNU,                         Norway      (Subsystems and CC3)
  Christian Neiss,          Univ. Erlangen-Nuernberg,     Germany     (CCSD(R12))
  Christian B. Nielsen,     University of Copenhagen,     Denmark     (QM/MM)
  Patrick Norman,           KTH Stockholm,                Sweden      (Cubic response and complex frequency response in RESPONS)
  Jeppe Olsen,              Aarhus University,            Denmark     (SIRIUS CI/density modules)
  Jogvan Magnus H. Olsen,   Aarhus University,            Denmark     (Polarizable embedding and polarizable density embedding)
  Anders Osted,             Copenhagen University,        Denmark     (QM/MM)
  Martin J. Packer,         University of Sheffield,      UK          (SOPPA)
  Filip Pawlowski,          Kazimierz Wielki University,  Poland      (CC3)
  Morten N. Pedersen,       Univ. of Southern Denmark,    Denmark     (Polarizable embedding)
  Thomas B. Pedersen,       University of Oslo,           Norway      (Cholesky decomposition)
  Patricio F. Provasi,      University of Northeastern,   Argentina   (Analysis of coupling constants in localized orbitals)
  Peter Reinholdt,          Univ. of Southern Denmark,    Denmark     (Polarizable embedding and polarizable density embedding)
  Zilvinas Rinkevicius,     KTH Stockholm,                Sweden      (open-shell DFT, ESR)
  Elias Rudberg,            KTH Stockholm,                Sweden      (DFT grid and basis info)
  Torgeir A. Ruden,         University of Oslo,           Norway      (Numerical derivatives in ABACUS)
  Kenneth Ruud,             UiT The Arctic U. of Norway,  Norway      (DALTON; ABACUS magnetic properties and much more)
  Pawel Salek,              KTH Stockholm,                Sweden      (DALTON; DFT code)
  Claire C. M. Samson       University of Karlsruhe       Germany     (Boys localization, r12 integrals in ERI)
  Alfredo Sanchez de Meras, University of Valencia,       Spain       (CC module, Cholesky decomposition)
  Trond Saue,               Paul Sabatier University,     France      (direct Fock matrix construction)
  Stephan P. A. Sauer,      University of Copenhagen,     Denmark     (SOPPA(CCSD), SOPPA prop., AOSOPPA, vibrational g-factors)
  Bernd Schimmelpfennig,    Forschungszentrum Karlsruhe,  Germany     (AMFI module)
  Anna K. Schnack-Petersen, University of Copenhagen,     Denmark     (RPA(D) and HRPA(D) properties in AOSOPPA)
  Kristian Sneskov,         Aarhus University,            Denmark     (Polarizable embedding, QM/MM)
  Arnfinn H. Steindal,      UiT The Arctic U. of Norway,  Norway      (parallel QM/MM, polarizable embedding)
  Casper Steinmann,         Aalborg University,           Denmark     (QFIT, polarizable embedding)
  K. O. Sylvester-Hvid,     University of Copenhagen,     Denmark     (MC-SCRF)
  Peter R. Taylor,          VLSCI/Univ. of Melbourne,     Australia   (Symmetry handling ABACUS, integral transformation)
  Andrew M. Teale,          University of Nottingham,     England     (DFT-AC, DFT-D)
  David P. Tew,             University of Bristol,        England     (CCSD(R12))
  Julien Toulouse,          Sorbonne Univ.,               France      (MC-srDFT)
  Olav Vahtras,             KTH Stockholm,                Sweden      (Triplet response, spin-orbit, ESR, TDDFT, open-shell DFT)
  Lucas Visscher,           Vrije Universiteit Amsterdam, Netherlands (Frozen density embedding)
  David J. Wilson,          La Trobe University,          Australia   (DFT Hessian and DFT magnetizabilities)
  Hans Agren,               KTH Stockholm,                Sweden      (SIRIUS module, RESPONS, MC-SCRF solvation)
 --------------------------------------------------------------------------------

     Date and time (Linux)  : Wed Jan  5 08:58:59 2022
     Host name              : foeroyar                                

 * Work memory size             :    64000000 =  488.28 megabytes.

 * Directories for basis set searches:
   1) /home/foeroyingur/Projects/dalton_devel/dalton/build_pelib/test/pemcscf
   2) /home/foeroyingur/Projects/dalton_devel/dalton/build_pelib/basis


Compilation information
-----------------------

 Who compiled             | foeroyingur
 Host                     | foeroyar
 System                   | Linux-5.15.12-200.fc35.x86_64
 CMake generator          | Unix Makefiles
 Processor                | x86_64
 64-bit integers          | OFF
 MPI                      | OFF
 Fortran compiler         | /usr/bin/gfortran
 Fortran compiler version | GNU Fortran (GCC) 11.2.1 20211203 (Red Hat 11.2.1-
                          | 7)
 C compiler               | /usr/bin/gcc
 C compiler version       | gcc (GCC) 11.2.1 20211203 (Red Hat 11.2.1-7)
 C++ compiler             | /usr/bin/g++
 C++ compiler version     | g++ (GCC) 11.2.1 20211203 (Red Hat 11.2.1-7)
 BLAS                     | /lib64/libopenblas.so
 LAPACK                   | /lib64/liblapack.so
 Static linking           | OFF
 Last Git revision        | e4aa03a748637131d70017ea2c64070859e19a35
 Git branch               | update-pelib
 Configuration time       | 2022-01-05 08:50:52.280451


   Content of the .dal input file
 ----------------------------------

**DALTON
.RUN PROPERTIES
.PELIB
**WAVE FUNCTIONS
.HF
.MCSCF
*CONFIGURATION INPUT
.SYMMETRY
 1
.SPIN MUL
 1
.INACTIVE
 5
.ELECTRONS
 6
.CAS SPACE
 4
**PROPERTIES
.EXCITA
*EXCITA
.NEXCIT
 2
.DIPSTR
**END OF


   Content of the .mol file
 ----------------------------

BASIS
3-21G
Formaldehyde
------------------------
AtomTypes=3 NoSymmetry Angstrom
Charge=6.0 Atoms=1
C           -1.588367    -.770650     .029109
Charge=8.0 Atoms=1
O           -1.657083     .436069    -.009750
Charge=1.0 Atoms=2
H           -.620668   -1.294822      .054251
H           -2.508043   -1.382001     .040282


       *******************************************************************
       *********** Output from DALTON general input processing ***********
       *******************************************************************

 --------------------------------------------------------------------------------
   Overall default print level:    0
   Print level for DALTON.STAT:    1

    HERMIT 1- and 2-electron integral sections will be executed
    "Old" integral transformation used (limited to max 255 basis functions)
    Wave function sections will be executed (SIRIUS module)
    Static molecular property section will be executed (ABACUS module)
    Environment effects are included (PElib)
 --------------------------------------------------------------------------------


   ****************************************************************************
   *************** Output of molecule and basis set information ***************
   ****************************************************************************


    The two title cards from your ".mol" input:
    ------------------------------------------------------------------------
 1: Formaldehyde                                                            
 2: ------------------------                                                
    ------------------------------------------------------------------------

  Coordinates are entered in Angstrom and converted to atomic units.
          - Conversion factor : 1 bohr = 0.52917721 A

  Atomic type no.    1
  --------------------
  Nuclear charge:   6.00000
  Number of symmetry independent centers:    1
  Number of basis sets to read;    2
  Basis set file used for this atomic type with Z =   6 :
     "/home/foeroyingur/Projects/dalton_devel/dalton/build_pelib/basis/3-21G"

  Info about the basis set file: your basis has no documentation.
  Basis set: 3-21G                                                                           

  Atomic type no.    2
  --------------------
  Nuclear charge:   8.00000
  Number of symmetry independent centers:    1
  Number of basis sets to read;    2
  Basis set file used for this atomic type with Z =   8 :
     "/home/foeroyingur/Projects/dalton_devel/dalton/build_pelib/basis/3-21G"

  Info about the basis set file: your basis has no documentation.
  Basis set: 3-21G                                                                           

  Atomic type no.    3
  --------------------
  Nuclear charge:   1.00000
  Number of symmetry independent centers:    2
  Number of basis sets to read;    2
  Basis set file used for this atomic type with Z =   1 :
     "/home/foeroyingur/Projects/dalton_devel/dalton/build_pelib/basis/3-21G"

  Info about the basis set file: your basis has no documentation.
  Basis set: 3-21G                                                                           


                         SYMGRP: Point group information
                         -------------------------------

@    Point group: C1 


                                 Isotopic Masses
                                 ---------------

                           C          12.000000
                           O          15.994915
                           H           1.007825
                           H           1.007825

                       Total mass:    30.010565 amu
                       Natural abundance:  98.633 %

 Center-of-mass coordinates (a.u.):   -3.067740   -0.312997    0.018175
 Center-of-mass coordinates (Angs):   -1.623378   -0.165631    0.009618


  Atoms and basis sets
  --------------------

  Number of atom types :    3
  Total number of atoms:    4

  Basis set used is "3-21G" from the basis set library.

  label    atoms   charge   prim   cont     basis
  ----------------------------------------------------------------------
  C           1    6.0000    15     9      [6s3p|3s2p]                                        
  O           1    8.0000    15     9      [6s3p|3s2p]                                        
  H           2    1.0000     3     2      [3s|2s]                                            
  ----------------------------------------------------------------------
  total:      4   16.0000    36    22
  ----------------------------------------------------------------------

  Threshold for neglecting AO integrals:  1.00D-12


  Cartesian Coordinates (a.u.)
  ----------------------------

  Total number of coordinates:   12
  C       :     1  x  -3.0015786160    2  y  -1.4563174382    3  z   0.0550080378
  O       :     4  x  -3.1314330364    5  y   0.8240509816    6  z  -0.0184248297
  H       :     7  x  -1.1728925345    8  y  -2.4468589606    9  z   0.1025195320
  H       :    10  x  -4.7395143797   11  y  -2.6116033945   12  z   0.0761219478


   Interatomic separations (in Angstrom):
   --------------------------------------

            C           O           H           H     
            ------      ------      ------      ------
 C     :    0.000000
 O     :    1.209298    0.000000
 H     :    1.100831    2.018474    0.000000
 H     :    1.104391    2.007988    1.889439    0.000000


  Max    interatomic separation is    2.0185 Angstrom (    3.8144 Bohr)
  between atoms    3 and    2, "H     " and "O     ".

  Min HX interatomic separation is    1.1008 Angstrom (    2.0803 Bohr)

  Min YX interatomic separation is    1.2093 Angstrom (    2.2852 Bohr)


  Bond distances (Angstrom):
  --------------------------

                  atom 1     atom 2       distance
                  ------     ------       --------
  bond distance:  O          C            1.209298
  bond distance:  H          C            1.100831
  bond distance:  H          C            1.104391


  Bond angles (degrees):
  ----------------------

                  atom 1     atom 2     atom 3         angle
                  ------     ------     ------         -----
  bond angle:     O          C          H            121.724
  bond angle:     O          C          H            120.357
  bond angle:     H          C          H            117.919




 Principal moments of inertia (u*A**2) and principal axes
 --------------------------------------------------------

   IA       1.798871         -0.056827    0.997867   -0.032124
   IB      13.009178          0.998345    0.057081    0.007042
   IC      14.808049         -0.008861    0.031671    0.999459


 Rotational constants
 --------------------

@    The molecule is planar.

               A                   B                   C

         280942.3015          38847.8806          34128.6681 MHz
            9.371226            1.295826            1.138410 cm-1


@  Nuclear repulsion energy :   31.249215315972 Hartree

  Reading potential input file for polarizable embedding calculation

    .------------------------------------------------.
    | Information from polarizable embedding library |
    `------------------------------------------------´

      Number of classical sites:      6

      Multipole moments upto 2nd order.

      Dipole-dipole polarizabilities.

      Iterative solver for induced moments will be used
      with convergence threshold: 1.0E-08
      Total charge of classical region:   -0.0000
 


                     .---------------------------------------.
                     | Starting in Integral Section (HERMIT) |
                     `---------------------------------------'



 ***************************************************************************************
 ****************** Output from **INTEGRALS input processing (HERMIT) ******************
 ***************************************************************************************


 - Using defaults, no **INTEGRALS input found

 Default print level:        1

 Calculation of one- and two-electron Hamiltonian integrals.

 Center of mass  (bohr):     -3.067740315293     -0.312997395263      0.018174673399
 Operator center (bohr):      0.000000000000      0.000000000000      0.000000000000
 Gauge origin    (bohr):      0.000000000000      0.000000000000      0.000000000000
 Dipole origin   (bohr):      0.000000000000      0.000000000000      0.000000000000

Calculation of 2-electron integrals are postponed until they are needed.


     ************************************************************************
     ************************** Output from HERINT **************************
     ************************************************************************



                      Nuclear contribution to dipole moments
                      --------------------------------------

                 au               Debye          C m (/(10**-30)

      x    -48.97334290      -124.47781350      -415.21329231
      y     -7.20395913       -18.31063652       -61.07770905
      z      0.36129107         0.91831024         3.06315324


  Total CPU  time used in HERMIT:   0.01 seconds
  Total wall time used in HERMIT:   0.01 seconds


                        .----------------------------------.
                        | End of Integral Section (HERMIT) |
                        `----------------------------------'



                   .--------------------------------------------.
                   | Starting in Wave Function Section (SIRIUS) |
                   `--------------------------------------------'


 *** Output from Huckel module :

     Using EWMO model:          T
     Using EHT  model:          F
     Number of Huckel orbitals each symmetry:   12

 EWMO - Energy Weighted Maximum Overlap - is a Huckel type method,
        which normally is better than Extended Huckel Theory.
 Reference: Linderberg and Ohrn, Propagators in Quantum Chemistry (Wiley, 1973)

 Huckel EWMO eigenvalues for symmetry :  1
          -20.684762     -11.351957      -1.632119      -1.046130      -0.813248
           -0.702067      -0.605910      -0.491826      -0.321033      -0.161573
           -0.131670      -0.108806

 SETCI, core memory needed for CI:
 LCINDX =         139
 LACIMX =         370
 LBCIMX =           0

 Number of determinants:            16

 Number of configurations:          10

 Time used in SETCI :      0.02s

 **********************************************************************
 *SIRIUS* a direct, restricted step, second order MCSCF program       *
 **********************************************************************

 
     Date and time (Linux)  : Wed Jan  5 08:58:59 2022
     Host name              : foeroyar                                

 Title lines from ".mol" input file:
     Formaldehyde                                                            
     ------------------------                                                

 Print level on unit LUPRI =   2 is   0
 Print level on unit LUW4  =   2 is   5

@    MCSCF optimization.
@              Type: complete active space calculation (CAS).

@    This is a combination run starting with
@              a restricted, closed shell Hartree-Fock calculation


 Initial molecular orbitals are obtained according to
 ".MOSTART EWMO  " input option

@    QM part is embedded in an environment :

@         Model: PE

     Wave function specification
     ============================

     Wave function environment is modeled using the
     polarizable embedding model (PE library).

@    Wave function type        --- PE-MC-SCF ---
@    Number of closed shell electrons          10
@    Number of electrons in active shells       6
@    Total charge of the molecule               0

@    Spin multiplicity and 2 M_S                1         0
@    Total number of symmetries                 1 (point group: C1 )
@    Reference state symmetry                   1 (irrep name : A  )

     Orbital specifications
     ======================
@    Abelian symmetry species          All |    1
@                                          |  A  
                                       --- |  ---
@    Inactive orbitals                   5 |    5
@    Active orbitals                     4 |    4
@    Secondary orbitals                 13 |   13
@    Total number of orbitals           22 |   22
@    Number of basis functions          22 |   22

      -- Initial occupation of symmetries is determined from total charge (only one symmetry!)
      -- Initial occupation of symmetries is :
@    Occupied SCF orbitals               8 |    8

     Optimization information
     ========================
@    Number of configurations                10
@    Number of orbital rotations            137
     ------------------------------------------
@    Total number of variables              147

     Maximum number of macro iterations      25
     Maximum number of micro iterations     600
     Threshold for MCSCF gradient      1.00D-05
     Number of initial trial vectors          1
     Number of initial CI iterations         -1
     Number of simultaneous trial vectors     1

@    This calculation converges to the lowest state for the specified symmetry and spin species.

     Maximum number of NEO/NR iterations  24


 ***********************************************
 ***** DIIS acceleration of SCF iterations *****
 ***********************************************

 C1-DIIS algorithm; max error vectors =    8

 Iter      Total energy     Embedding energy      Error norm     Delta(E)
 -----------------------------------------------------------------------------

Calculating AOSUPINT

---> (Re)generating AOTWOINT


     ************************************************************************
     ************************** Output from HERINT **************************
     ************************************************************************


 Threshold for neglecting two-electron integrals:  1.00D-12
 HERMIT - Number of two-electron integrals written:       30470 ( 94.8% )
 HERMIT - Megabytes written:                              0.350

     (Precalculated AO two-electron integrals are transformed to P-supermatrix elements.
      Threshold for discarding integrals :  1.00D-12 )
@  1  -112.861663729     -3.276648036488E-02    2.49359D+00   -1.13D+02
      Virial theorem: -V/T =      2.000510
@    MULPOP   C       1.01; O      -0.72; H      -0.15; H      -0.15; 
   1  Level shift: doubly occupied orbital energies shifted by -2.00D-01
 -----------------------------------------------------------------------------
@  2  -113.191351450     -1.958633175349E-02    1.09038D+00   -3.30D-01
      Virial theorem: -V/T =      2.008517
@    MULPOP   C      -0.20; O      -0.18; H       0.22; H       0.17; 
   2  Level shift: doubly occupied orbital energies shifted by -1.00D-01
 -----------------------------------------------------------------------------
@  3  -113.245056803     -2.879087096417E-02    1.97121D-01   -5.37D-02
      Virial theorem: -V/T =      2.001441
@    MULPOP   C       0.13; O      -0.54; H       0.24; H       0.17; 
   3  Level shift: doubly occupied orbital energies shifted by -2.50D-02
 -----------------------------------------------------------------------------
@  4  -113.247096283     -2.884311472663E-02    4.00121D-02   -2.04D-03
      Virial theorem: -V/T =      2.003607
@    MULPOP   C       0.13; O      -0.56; H       0.26; H       0.17; 
 -----------------------------------------------------------------------------
@  5  -113.247229457     -2.917807498683E-02    7.53489D-03   -1.33D-04
      Virial theorem: -V/T =      2.003148
@    MULPOP   C       0.12; O      -0.57; H       0.27; H       0.18; 
 -----------------------------------------------------------------------------
@  6  -113.247237746     -2.927599098633E-02    2.39517D-03   -8.29D-06
      Virial theorem: -V/T =      2.003155
@    MULPOP   C       0.12; O      -0.57; H       0.27; H       0.18; 
 -----------------------------------------------------------------------------
@  7  -113.247238675     -2.929813248328E-02    6.19910D-04   -9.29D-07
      Virial theorem: -V/T =      2.003164
@    MULPOP   C       0.12; O      -0.57; H       0.27; H       0.18; 
 -----------------------------------------------------------------------------
@  8  -113.247238750     -2.930275005943E-02    1.36395D-04   -7.49D-08
      Virial theorem: -V/T =      2.003163
@    MULPOP   C       0.12; O      -0.57; H       0.27; H       0.18; 
 -----------------------------------------------------------------------------
@  9  -113.247238753     -2.930294517187E-02    2.80160D-05   -3.07D-09
      Virial theorem: -V/T =      2.003164
@    MULPOP   C       0.12; O      -0.57; H       0.27; H       0.18; 
 -----------------------------------------------------------------------------
@ 10  -113.247238754     -2.930301640097E-02    1.39158D-05   -2.86D-10
      Virial theorem: -V/T =      2.003164
@    MULPOP   C       0.12; O      -0.57; H       0.27; H       0.18; 
 -----------------------------------------------------------------------------
@ 11  -113.247238754     -2.930301535026E-02    7.10324D-06   -1.02D-10

@ *** DIIS converged in  11 iterations !
@     Converged SCF energy, gradient:   -113.247238753692    7.10D-06
    - total time used in SIRFCK :              0.00 seconds

    .--------------------------------------------------.
    | Final results from polarizable embedding library |
    `--------------------------------------------------´

        Polarizable embedding energy contributions:
       ---------------------------------------------

       Electrostatic contributions:
            Electronic                -0.216139311614
            Nuclear                    0.196501001970
            Multipole                  0.000000000000
            Total                     -0.019638309644

       Polarization contributions:
            Electronic                -0.066611523804
            Nuclear                    0.062514884871
            Multipole                 -0.005568066774
            Total                     -0.009664705707

       Total PE energy:               -0.029303015350
            (excl. multipole-multipole interaction energy)

 --- Writing SIRIFC interface file


                           +---------------------------+
                           ! Writing FOCKMAT in siropt !
                           +---------------------------+


 CPU and wall time for SCF :       0.058       0.059


        SIRIUS MCSCF optimization (SIROPT)
 ================================================



 ----- Output from SIRIUS CI module (CICTL) -----




 2-el. integral transformation level 0: Total CPU and WALL times (sec)       0.003       0.003

 (CIST1) 8 lowest diagonal elements:

 Element no. Config.no.    Active energy      Total energy

         1 :          1    -10.7871119100   -113.2179357383
         2 :          5    -10.6279789939   -113.0588028223
         3 :          6    -10.4601102543   -112.8909340827
         4 :          7    -10.4558525109   -112.8866763392
         5 :          2    -10.3349886443   -112.7658124726
         6 :          8    -10.2602914011   -112.6911152295
         7 :          9    -10.2030232583   -112.6338470867
         8 :         10    -10.0747125840   -112.5055364124
First 1 elements used as separate start vectors.


 Convergence threshold for CI optimization :     0.01000000


 The requested root number is now converged.


 *** CI converged in  2 iterations.



@ Final CI energies and residuals in symmetry 1 (irrep A  )
@    1     -113.251562978199914       9.69D-03

   --- OUTPUT FROM SIRCNO     Keyword = ONLYFD



 --- MACRO ITERATION  1 ---
 --------------------------

 2-el. integral transformation level 3: Total CPU and WALL times (sec)       0.006       0.007

 Total MCSCF energy       :          -113.276890996628993  (MACRO    1)

 - Nuclear repulsion      :            31.249215315972382
 - Inactive energy        :          -133.680039144333023
 - Active energy          :           -10.820739149839198
 - Embedding energy       :            -0.025328018429156

 Norm of total gradient   :             0.177327516211
 -    of CI gradient      :             0.032962701016
 -    of orbital gradient :             0.174236931640


 *** Label "NATOCC  " not found on SIRIUS.RST in SIRPOP

 WARNING, occupation of active orbitals not available
          population analysis aborted.
          Use ".TRACI" option.


 (SIRNEO) iteration (  1,  6)
 Micro iteration termination criterion met, EVAL(ISTATE+1) = -9.56D-04

   --- OUTPUT FROM SIRCNO     Keyword = FD+NO 


 Occupations of CAS natural orbitals:

 Symmetry  1 ( irrep A   in C1  )

   1.997968662   1.848794080   1.998475951   0.154761307


 --- MACRO ITERATION  2 ---
 --------------------------

 2-el. integral transformation level 3: Total CPU and WALL times (sec)       0.006       0.007

 Total MCSCF energy       :          -113.278706212721701  (MACRO    2)

 - Nuclear repulsion      :            31.249215315972382
 - Inactive energy        :          -132.856437135723098
 - Active energy          :           -11.644978684991589
 - Embedding energy       :            -0.026505707979389

 Norm of total gradient   :             0.182869660438
 -    of CI gradient      :             0.162956782094
 -    of orbital gradient :             0.082984335136
      Virial theorem: -V/T =      2.000983
@    MULPOP   C       0.06; O      -0.50; H       0.26; H       0.17; 

 (SIRSTP) Energy difference;
 actual, predicted and ratio:  -0.001815216092709  -0.013944567839331    0.130174

 (SIRSTP) step is too large -- backstep

   --- OUTPUT FROM SIRCNO     Keyword = FD+NO 


 Occupations of CAS natural orbitals:

 Symmetry  1 ( irrep A   in C1  )

   1.997971730   1.849570668   1.998474831   0.153982771


 Optimization control: Step was too large, we backstep


 --- MACRO ITERATION  2 BACKSTEP NO.  1 ---

 2-el. integral transformation level 3: Total CPU and WALL times (sec)       0.006       0.006

 Total MCSCF energy       :          -113.278943656363296  (MACRO    2)

 - Nuclear repulsion      :            31.249215315972382
 - Inactive energy        :          -133.274123349479538
 - Active energy          :           -11.227534905765602
 - Embedding energy       :            -0.026500717090530

 Norm of total gradient   :             0.174944563385
 -    of CI gradient      :             0.157455117526
 -    of orbital gradient :             0.076246221038
      Virial theorem: -V/T =      2.001133
@    MULPOP   C       0.06; O      -0.50; H       0.26; H       0.17; 

 (SIRSTP) Energy difference;
 actual, predicted and ratio:  -0.002052659734304  -0.013472108946863    0.152364

 (SIRSTP) step is too large -- backstep

   --- OUTPUT FROM SIRCNO     Keyword = FD+NO 


 Occupations of CAS natural orbitals:

 Symmetry  1 ( irrep A   in C1  )

   1.998002017   1.857367325   1.998464325   0.146166333


 Optimization control: Step was too large, we backstep


 --- MACRO ITERATION  2 BACKSTEP NO.  2 ---

 2-el. integral transformation level 3: Total CPU and WALL times (sec)       0.006       0.006

 Total MCSCF energy       :          -113.281383291621765  (MACRO    2)

 - Nuclear repulsion      :            31.249215315972382
 - Inactive energy        :          -133.735811791379462
 - Active energy          :           -10.768181702719266
 - Embedding energy       :            -0.026605113495420

 Norm of total gradient   :             0.139431041410
 -    of CI gradient      :             0.126337793303
 -    of orbital gradient :             0.058989637158
      Virial theorem: -V/T =      2.001463
@    MULPOP   C       0.06; O      -0.50; H       0.26; H       0.18; 

 Residual norm when dim(red L) =   6
 NEO root     CSF        orbital          total
    1     0.00541347     0.00251219     0.00596798 converged

 (NEONEX) NEO vector is converged.

   --- OUTPUT FROM SIRCNO     Keyword = FD+NO 


 Occupations of CAS natural orbitals:

 Symmetry  1 ( irrep A   in C1  )

   1.998806531   1.907634985   1.999130347   0.094428137


 --- MACRO ITERATION  3 ---
 --------------------------

 2-el. integral transformation level 3: Total CPU and WALL times (sec)       0.006       0.007

 Total MCSCF energy       :          -113.286489959007042  (MACRO    3)

 - Nuclear repulsion      :            31.249215315972382
 - Inactive energy        :          -133.438847481333028
 - Active energy          :           -11.070178545453437
 - Embedding energy       :            -0.026679248192963

 Norm of total gradient   :             0.015229012696
 -    of CI gradient      :             0.010422814531
 -    of orbital gradient :             0.011103502373
      Virial theorem: -V/T =      2.002429
@    MULPOP   C       0.06; O      -0.50; H       0.26; H       0.17; 

 (SIRNEO) iteration (  3,  5)
 Micro iteration termination criterion met, EVAL(ISTATE+1) = -3.12D-04

   --- OUTPUT FROM SIRCNO     Keyword = FD+NO 


 Occupations of CAS natural orbitals:

 Symmetry  1 ( irrep A   in C1  )

   1.998420242   1.908616519   1.999190478   0.093772762


 --- MACRO ITERATION  4 ---
 --------------------------

 2-el. integral transformation level 3: Total CPU and WALL times (sec)       0.006       0.006

 Total MCSCF energy       :          -113.286942856674514  (MACRO    4)

 - Nuclear repulsion      :            31.249215315972382
 - Inactive energy        :          -132.960730931252044
 - Active energy          :           -11.548827924417875
 - Embedding energy       :            -0.026599316976979

 Norm of total gradient   :             0.005938818923
 -    of CI gradient      :             0.005000812455
 -    of orbital gradient :             0.003203349027
      Virial theorem: -V/T =      2.002548
@    MULPOP   C       0.06; O      -0.50; H       0.26; H       0.17; 

 Residual norm when dim(red L) =   8
 NEO root     CSF        orbital          total
    1     0.00078855     0.00032983     0.00085475 converged

 (NEONEX) NEO vector is converged.

   --- OUTPUT FROM SIRCNO     Keyword = FD+NO 


 Occupations of CAS natural orbitals:

 Symmetry  1 ( irrep A   in C1  )

   1.998241258   1.909799926   1.999325020   0.092633796


 --- MACRO ITERATION  5 ---
 --------------------------

 2-el. integral transformation level 3: Total CPU and WALL times (sec)       0.006       0.007

 Total MCSCF energy       :          -113.287359480707011  (MACRO    5)

 - Nuclear repulsion      :            31.249215315972382
 - Inactive energy        :          -132.991696458942158
 - Active energy          :           -11.518296400143489
 - Embedding energy       :            -0.026581937593742

 Norm of total gradient   :             0.004522443703
 -    of CI gradient      :             0.004291914796
 -    of orbital gradient :             0.001425469899
      Virial theorem: -V/T =      2.002535
@    MULPOP   C       0.06; O      -0.50; H       0.26; H       0.17; 

 (SIRNEO) iteration (  5,  7)
 Micro iteration termination criterion met, EVAL(ISTATE+1) = -6.89D-04

   --- OUTPUT FROM SIRCNO     Keyword = FD+NO 


 Occupations of CAS natural orbitals:

 Symmetry  1 ( irrep A   in C1  )

   1.997098053   1.909580746   1.999410609   0.093910592


 --- MACRO ITERATION  6 ---
 --------------------------

 2-el. integral transformation level 3: Total CPU and WALL times (sec)       0.006       0.006

 Total MCSCF energy       :          -113.287753849233951  (MACRO    6)

 - Nuclear repulsion      :            31.249215315972382
 - Inactive energy        :          -133.628771889757388
 - Active energy          :           -10.881564879231544
 - Embedding energy       :            -0.026632396217391

 Norm of total gradient   :             0.005520600482
 -    of CI gradient      :             0.005287586143
 -    of orbital gradient :             0.001586966437
      Virial theorem: -V/T =      2.002522
@    MULPOP   C       0.06; O      -0.50; H       0.26; H       0.17; 

 (SIRNEO) iteration (  6,  6)
 Micro iteration termination criterion met, EVAL(ISTATE+1) = -1.18D-05

   --- OUTPUT FROM SIRCNO     Keyword = FD+NO 


 Occupations of CAS natural orbitals:

 Symmetry  1 ( irrep A   in C1  )

   1.997337188   1.909483717   1.999414270   0.093764825


 --- MACRO ITERATION  7 ---
 --------------------------

 2-el. integral transformation level 3: Total CPU and WALL times (sec)       0.006       0.006

 Total MCSCF energy       :          -113.287846830868361  (MACRO    7)

 - Nuclear repulsion      :            31.249215315972382
 - Inactive energy        :          -133.317936127613592
 - Active energy          :           -11.192437986524077
 - Embedding energy       :            -0.026688032703070

 Norm of total gradient   :             0.005164020112
 -    of CI gradient      :             0.003041478036
 -    of orbital gradient :             0.004173309846
      Virial theorem: -V/T =      2.002551
@    MULPOP   C       0.06; O      -0.50; H       0.26; H       0.17; 

 Residual norm when dim(red L) =  11
 NEO root     CSF        orbital          total
    1     0.00034555     0.00024574     0.00042402 converged

 (NEONEX) NEO vector is converged.

   --- OUTPUT FROM SIRCNO     Keyword = FD+NO 


 Occupations of CAS natural orbitals:

 Symmetry  1 ( irrep A   in C1  )

   1.997546603   1.909779627   1.999408053   0.093265717


 --- MACRO ITERATION  8 ---
 --------------------------

 2-el. integral transformation level 3: Total CPU and WALL times (sec)       0.006       0.006

 Total MCSCF energy       :          -113.288003584617712  (MACRO    8)

 - Nuclear repulsion      :            31.249215315972382
 - Inactive energy        :          -133.030867361523207
 - Active energy          :           -11.479639055159030
 - Embedding energy       :            -0.026712483907860

 Norm of total gradient   :             0.003092211864
 -    of CI gradient      :             0.003024024904
 -    of orbital gradient :             0.000645792220
      Virial theorem: -V/T =      2.002523
@    MULPOP   C       0.06; O      -0.50; H       0.26; H       0.17; 

 Residual norm when dim(red L) =  12
 NEO root     CSF        orbital          total
    1     0.00033825     0.00014571     0.00036830 converged

 (NEONEX) NEO vector is converged.

   --- OUTPUT FROM SIRCNO     Keyword = FD+NO 


 Occupations of CAS natural orbitals:

 Symmetry  1 ( irrep A   in C1  )

   1.997672344   1.910152830   1.999455063   0.092719764


 --- MACRO ITERATION  9 ---
 --------------------------

 2-el. integral transformation level 3: Total CPU and WALL times (sec)       0.006       0.006

 Total MCSCF energy       :          -113.288083865425449  (MACRO    9)

 - Nuclear repulsion      :            31.249215315972382
 - Inactive energy        :          -132.893849883035415
 - Active energy          :           -11.616730234433161
 - Embedding energy       :            -0.026719063929255

 Norm of total gradient   :             0.002570577320
 -    of CI gradient      :             0.002517685340
 -    of orbital gradient :             0.000518775761
      Virial theorem: -V/T =      2.002527
@    MULPOP   C       0.06; O      -0.50; H       0.26; H       0.17; 

 Residual norm when dim(red L) =  15
 NEO root     CSF        orbital          total
    1     0.00003046     0.00002039     0.00003666 converged

 (NEONEX) NEO vector is converged.

   --- OUTPUT FROM SIRCNO     Keyword = FD+NO 


 Occupations of CAS natural orbitals:

 Symmetry  1 ( irrep A   in C1  )

   1.997599709   1.910114626   1.999445848   0.092839817


 --- MACRO ITERATION 10 ---
 --------------------------

 2-el. integral transformation level 3: Total CPU and WALL times (sec)       0.006       0.006

 Total MCSCF energy       :          -113.288086737823434  (MACRO   10)

 - Nuclear repulsion      :            31.249215315972382
 - Inactive energy        :          -132.899885249031371
 - Active energy          :           -11.610701551712520
 - Embedding energy       :            -0.026715253051920

 Norm of total gradient   :             0.000044535291
 -    of CI gradient      :             0.000039538861
 -    of orbital gradient :             0.000020495623
      Virial theorem: -V/T =      2.002527
@    MULPOP   C       0.06; O      -0.50; H       0.26; H       0.17; 

 Residual norm when dim(red L) =   8
 NEO root     CSF        orbital          total
    1     0.00000370     0.00000677     0.00000772 converged

 (NEONEX) NEO vector is converged.

   --- OUTPUT FROM SIRCNO     Keyword = FD+NO 


 Occupations of CAS natural orbitals:

 Symmetry  1 ( irrep A   in C1  )

   1.997601394   1.910106883   1.999445491   0.092846232


 --- MACRO ITERATION 11 ---
 --------------------------

 2-el. integral transformation level 3: Total CPU and WALL times (sec)       0.006       0.006

 Total MCSCF energy       :          -113.288086739319979  (MACRO   11)

 - Nuclear repulsion      :            31.249215315972382
 - Inactive energy        :          -132.900894927647926
 - Active energy          :           -11.609691241487280
 - Embedding energy       :            -0.026715886157157

 Norm of total gradient   :             0.000007720388
 -    of CI gradient      :             0.000003703315
 -    of orbital gradient :             0.000006774205
      Virial theorem: -V/T =      2.002527
@    MULPOP   C       0.06; O      -0.50; H       0.26; H       0.17; 

 (SIRSTP) Energy difference;
 actual, predicted and ratio:  -0.000000001496545  -0.000000001525097    0.981278
 Close to convergence, ratio set to one.

 *** Optimization control: MCSCF converged ***
     Number of macro iterations used           11
     Number of micro iterations used           72
     Total number of CPU seconds used         0.63
     Total WALL time used (seconds)           0.64

    .--------------------------------------------------.
    | Final results from polarizable embedding library |
    `--------------------------------------------------´

        Polarizable embedding energy contributions:
       ---------------------------------------------

       Electrostatic contributions:
            Electronic                -0.214331310918
            Nuclear                    0.196501001970
            Multipole                  0.000000000000
            Total                     -0.017830308948

       Polarization contributions:
            Electronic                -0.061537706334
            Nuclear                    0.058049426932
            Multipole                 -0.005397297810
            Total                     -0.008885577211

       Total PE energy:               -0.026715886159
            (excl. multipole-multipole interaction energy)


                           +---------------------------+
                           ! Writing FOCKMAT in siropt !
                           +---------------------------+


 CPU and wall time for MCSCF :       0.639       0.648


                     .----------------------------------------.
                     | --- SIRIUS OPTIMIZATION STATISTICS --- |
                     `----------------------------------------'


 
     Date and time (Linux)  : Wed Jan  5 08:59:00 2022
     Host name              : foeroyar                                


  ITER ITMIC     EMCSCF           GRDNRM        RATIO      STPLNG
 ---------------------------------------------------------------------
    1    6   -113.276890996629   0.1773275162  0.000000   0.7397573115
    2    0   -113.278706212722   0.1828696604  0.130174   0.0000000000
    2    0   -113.278943656363   0.1749445634  0.152364   0.0000000000
    2    4   -113.281383291622   0.1394310414  0.347593   0.2287429126
    3    5   -113.286489959007   0.0152290127  1.059689   0.3168324805
    4    6   -113.286942856675   0.0059388189  0.947194   0.3763234042
    5    7   -113.287359480707   0.0045224437  0.896691   0.4547430821
    6    6   -113.287753849234   0.0055206005  0.680945   0.4325253110
    7    9   -113.287846830868   0.0051640201  0.876761   0.5498597701
    8   10   -113.288003584618   0.0030922119  0.758048   0.5557314389
    9   13   -113.288083865425   0.0025705773  0.751688   0.0364217276
   10    6   -113.288086737823   0.0000445353  0.996280   0.0012598785
   11    0   -113.288086739320   0.0000077204  1.000000   0.0000000000


  ITER  INDGCM  GCIMAX      GCINRM     INDGOM  GOBMAX      GOBNRM      GRDNRM
 ------------------------------------------------------------------------------
    1      6   -0.027316    0.032963    108    0.072250    0.174237    0.177328
    2      3   -0.152903    0.162957    134   -0.065900    0.082984    0.182870
    2      3   -0.147839    0.157455    134   -0.062708    0.076246    0.174945
    2      3   -0.118366    0.126338    134   -0.045369    0.058990    0.139431
    3      3   -0.007931    0.010423    134   -0.009438    0.011104    0.015229
    4      4   -0.004430    0.005001     68   -0.001039    0.003203    0.005939
    5      4   -0.004135    0.004292     13   -0.001159    0.001425    0.004522
    6      4    0.004877    0.005288    134   -0.001016    0.001587    0.005521
    7      9   -0.002516    0.003041    108    0.002674    0.004173    0.005164
    8      9   -0.002953    0.003024     19   -0.000250    0.000646    0.003092
    9      9    0.002002    0.002518     21   -0.000231    0.000519    0.002571
   10      4    0.000027    0.000040     21   -0.000008    0.000020    0.000045
   11      3    0.000002    0.000004     74   -0.000002    0.000007    0.000008


  ITER ITMIC NCLIN NOLIN   TIMMAC    TIMITR    TIMMIC    TIMLIN    TIMMIC/ITMIC
 ------------------------------------------------------------------------------

    1     6     1     5      0.05      0.01      0.04      0.04      0.01
    2     0     0     0      0.01      0.01      0.00      0.00
    2     0     0     0      0.01      0.01      0.00      0.00
    2     4     1     4      0.04      0.01      0.03      0.03      0.01
    3     5     2     4      0.05      0.01      0.04      0.04      0.01
    4     6     2     5      0.05      0.01      0.04      0.04      0.01
    5     7     2     6      0.06      0.01      0.05      0.05      0.01
    6     6     1     6      0.05      0.01      0.04      0.04      0.01
    7     9     2     8      0.07      0.01      0.06      0.06      0.01
    8    10     2     9      0.08      0.01      0.07      0.07      0.01
    9    13     3    11      0.09      0.01      0.08      0.08      0.01
   10     6     2     5      0.05      0.01      0.04      0.04      0.01
   11     0     0     0      0.01      0.01      0.00      0.00


 ITER         EMY                 EACTIV              EMCSCF

    1   -133.680039144333    -10.820739149839   -113.276890996629
    2   -132.856437135723    -11.644978684992   -113.278706212722
    2   -133.274123349480    -11.227534905766   -113.278943656363
    2   -133.735811791379    -10.768181702719   -113.281383291622
    3   -133.438847481333    -11.070178545453   -113.286489959007
    4   -132.960730931252    -11.548827924418   -113.286942856675
    5   -132.991696458942    -11.518296400143   -113.287359480707
    6   -133.628771889757    -10.881564879232   -113.287753849234
    7   -133.317936127614    -11.192437986524   -113.287846830868
    8   -133.030867361523    -11.479639055159   -113.288003584618
    9   -132.893849883035    -11.616730234433   -113.288083865425
   10   -132.899885249031    -11.610701551713   -113.288086737823
   11   -132.900894927648    -11.609691241487   -113.288086739320


 ITER         DEPRED              DEACT               RATIO

    1      0.000000000000      0.000000000000      0.000000000000
    2     -0.013944567839     -0.001815216093      0.130173707326
    2     -0.013472108947     -0.002052659734      0.152363653115
    2     -0.012924012792     -0.004492294993      0.347592892796
    3     -0.004819025059     -0.005106667385      1.059688904473
    4     -0.000478146920     -0.000452897667      0.947193527581
    5     -0.000464623797     -0.000416624032      0.896691118209
    6     -0.000579148952     -0.000394368527      0.680944903413
    7     -0.000106051231     -0.000092981634      0.876761482000
    8     -0.000206786097     -0.000156753749      0.758047816996
    9     -0.000106800634     -0.000080280808      0.751688496598
   10     -0.000002883122     -0.000002872398      0.996280484568
   11     -0.000000001525     -0.000000001497      1.000000000000


 ITER    BETA           GAMMA             STPLNG              RTRUST

    1      0.31565669  1.00000000      0.739757311465      0.700000000000
    2      0.00000000  0.00000000      0.000000000000      0.469000000000
    2      0.00000000  0.00000000      0.000000000000      0.314230000000
    2      0.66894394  1.00000000      0.228742912579      0.210534100000
    3      2.37404693  1.00000000      0.316832480517      0.303169104000
    4      3.24669179  1.00000000      0.376323404240      0.363802924800
    5      2.21448679  1.00000000      0.454743082107      0.436563509760
    6      3.13272377  1.00000000      0.432525310962      0.436563509760
    7      2.24723992  1.00000000      0.549859770121      0.523876211712
    8      1.00000000  1.00000000      0.555731438877      0.523876211712
    9      0.20000000  1.00000000      0.036421727627      0.523876211712
   10      0.20000000  1.00000000      0.001259878484      0.700000000000
   11      0.00000000  0.00000000      0.000000000000      0.700000000000


 Reduced L root no.  1
 ITER         EVAL              EVEC(1)           EVEC(2)           EVEC(3)
 ----------------------------------------------------------------------------
    1   -0.002635163190    0.973803267280   -0.176738518894    0.001724904066
    2    0.000000000000    0.000000000000    0.000000000000    0.000000000000
    2    0.000000000000    0.000000000000    0.000000000000    0.000000000000
    2   -0.004214220918    0.988494672650   -0.036268056050   -0.134200744402
    3   -0.003442252179    0.799164830293   -0.005659122310   -0.546438665694
    4   -0.003929383024   -0.633366949110    0.002747042340    0.751223006370
    5   -0.002820243666    0.704628310374   -0.010014685899   -0.698219325528
    6   -0.000733985018   -0.593811550085    0.004736045531    0.428634255719
    7   -0.000826545726   -0.629083558672    0.003504004123    0.736406810430
    8   -0.000163199235    0.874092002009   -0.001579113265   -0.455036873008
    9   -0.000000230638    0.999973470211   -0.000148237036   -0.006308688757
   10   -0.000000000122    0.999999968254   -0.000005244360   -0.000171595085
   11    0.000000000000    0.000000000000    0.000000000000    0.000000000000


                       .-----------------------------------.
                       | --- Final results from SIRIUS --- |
                       `-----------------------------------'


@    Spin multiplicity:           1
@    Spatial symmetry:            1 ( irrep  A   in C1  )
@    Total charge of molecule:    0

@    This was an MC-srDFT calculation.
@    State number:                1

@    Final MCSCF energy:         -113.288086739320                 
@    Nuclear repulsion:            31.249215315972
@    Electronic energy:          -144.510586169135
@    Embedding energy:             -0.026715886157

@    Final gradient norm:           0.000007720388

 
     Date and time (Linux)  : Wed Jan  5 08:59:00 2022
     Host name              : foeroyar                                

 Occupancies of natural orbitals
 -------------------------------

 Symmetry 1  ( A  ) -- Total occupation in this symmetry is  16.000000000

   2.000000000   2.000000000   2.000000000   2.000000000   2.000000000
   1.997601394   1.910106883   1.999445491   0.092846232

File label for MO orbitals:   5Jan22   (CNOORB)

 (Only coefficients > 0.0100 are printed.)

 Molecular orbitals for symmetry species 1  (A  )
 ------------------------------------------------

    Orbital         1        2        3        4        5        6        7
   1 C   :1s    -0.0005  -0.9935  -0.0763  -0.0000   0.0007  -0.1209  -0.0001
   2 C   :1s     0.0009  -0.0846   0.1042  -0.0022  -0.0014   0.1755   0.0006
   3 C   :1s    -0.0149   0.0653  -0.0349   0.0156   0.0123   0.4115  -0.0006
   4 C   :2px    0.0005   0.0010  -0.0256   0.3536   0.1886   0.0096   0.0028
   5 C   :2py   -0.0061  -0.0082   0.3520   0.0157   0.0231  -0.0534  -0.0101
   6 C   :2pz    0.0002   0.0003  -0.0115   0.0025   0.0011   0.0021  -0.3083
   7 C   :2px    0.0009   0.0010  -0.0031   0.2889   0.0750   0.0203   0.0025
   8 C   :2py   -0.0161  -0.0131   0.0417   0.0121  -0.0068  -0.0770  -0.0105
   9 C   :2pz    0.0005   0.0005  -0.0017   0.0022   0.0010   0.0034  -0.3130
  10 O   :1s    -0.9902  -0.0030  -0.1054  -0.0018   0.0025   0.1448  -0.0001
  11 O   :1s    -0.0912   0.0014   0.1050  -0.0004   0.0002  -0.1532   0.0000
  12 O   :1s     0.0721   0.0057   0.2814   0.0087  -0.0079  -0.5953   0.0006
  13 O   :2px   -0.0014  -0.0005   0.0348   0.2713  -0.4485   0.0180   0.0021
  14 O   :2py    0.0113  -0.0012  -0.3712   0.0177  -0.0378  -0.2188  -0.0125
  15 O   :2pz   -0.0004   0.0000   0.0120   0.0014  -0.0017   0.0072  -0.3911
  16 O   :2px   -0.0001  -0.0005   0.0357   0.2478  -0.5515   0.0082   0.0025
  17 O   :2py   -0.0058  -0.0044  -0.3868   0.0189  -0.0519  -0.2077  -0.0136
  18 O   :2pz    0.0002   0.0001   0.0126   0.0008  -0.0017   0.0065  -0.4203
  19 H   :1s     0.0030   0.0094  -0.0638   0.1651   0.1684   0.1200   0.0007
  20 H   :1s     0.0012  -0.0102  -0.0782   0.0857   0.2068   0.0151   0.0007
  21 H   :1s     0.0027   0.0088  -0.0528  -0.1722  -0.1859   0.1181   0.0001
  22 H   :1s     0.0009  -0.0102  -0.0695  -0.1114  -0.2618   0.0337  -0.0003

    Orbital         8        9       10       11       12       13       14
   1 C   :1s    -0.1001   0.0001   0.1415  -0.0039   0.0750   0.0001  -0.0263
   2 C   :1s     0.1379  -0.0007  -0.0609   0.0042   0.0284   0.0007  -0.0522
   3 C   :1s     0.3378   0.0008  -1.8229   0.0302  -1.1714  -0.0018   0.2717
   4 C   :2px    0.0173  -0.0042  -0.0170  -0.3891   0.0193   0.0093  -0.7392
   5 C   :2py   -0.1584   0.0159   0.1782  -0.0305  -0.0518  -0.0327   0.1955
   6 C   :2pz    0.0055   0.4877  -0.0057  -0.0023   0.0019  -1.0232  -0.0137
   7 C   :2px    0.0094  -0.0037  -0.0839  -1.4623   0.1430  -0.0102   1.8407
   8 C   :2py   -0.1264   0.0161   0.7112  -0.1455  -1.6629   0.0361  -0.1706
   9 C   :2pz    0.0050   0.4930  -0.0234  -0.0079   0.0544   1.1055   0.0221
  10 O   :1s    -0.1305   0.0000  -0.0021  -0.0029  -0.1212  -0.0000   0.0154
  11 O   :1s     0.1528   0.0001   0.0115  -0.0003   0.0226   0.0001  -0.0297
  12 O   :1s     0.5117  -0.0006  -0.0494   0.0420   1.5840  -0.0001  -0.0009
  13 O   :2px   -0.0279   0.0034   0.0027   0.1259   0.0085   0.0004  -0.2264
  14 O   :2py    0.1280  -0.0161  -0.0509   0.0023  -0.1721  -0.0010   0.0592
  15 O   :2pz   -0.0041  -0.5072   0.0017   0.0009   0.0055  -0.0282  -0.0039
  16 O   :2px   -0.0269   0.0029   0.0109   0.3568   0.0337   0.0019  -0.2588
  17 O   :2py    0.1464  -0.0114  -0.0776   0.0017  -0.7280  -0.0069   0.0886
  18 O   :2pz   -0.0048  -0.3685   0.0027   0.0028   0.0233  -0.2120  -0.0049
  19 H   :1s     0.1413  -0.0005   0.0578  -0.0162  -0.0060   0.0009  -0.6883
  20 H   :1s     0.0678  -0.0005   1.3945   1.5005  -0.1726   0.0001  -0.4732
  21 H   :1s     0.1254  -0.0002   0.0523   0.0116  -0.0154   0.0005   0.2125
  22 H   :1s     0.0562   0.0004   1.2585  -1.5968  -0.0399   0.0003   0.5558

    Orbital        15       16       17       18       19
   1 C   :1s    -0.0734   0.0030   0.0014   0.0619   0.0000
   2 C   :1s    -0.1209  -0.3787   0.0147  -1.6467  -0.0005
   3 C   :1s     0.7571  -0.1844  -0.0301   2.6829   0.0006
   4 C   :2px    0.2498   0.0693   0.7931  -0.0068  -0.0009
   5 C   :2py    0.6922  -0.9440   0.0333   0.2332   0.0032
   6 C   :2pz   -0.0207   0.0301   0.0058  -0.0080   0.0969
   7 C   :2px   -0.6560  -0.0630  -0.9615   0.0106  -0.0020
   8 C   :2py   -0.6952   0.4908  -0.0407  -0.4387   0.0113
   9 C   :2pz    0.0168  -0.0159  -0.0073   0.0140   0.3613
  10 O   :1s     0.0484  -0.0371  -0.0016   0.0067   0.0000
  11 O   :1s    -0.0877   0.0208   0.0038  -0.0193  -0.0001
  12 O   :1s    -0.0736   0.0473   0.0056  -0.2963   0.0001
  13 O   :2px    0.0674   0.0134  -0.1255   0.0135  -0.0080
  14 O   :2py    0.2068  -0.2083  -0.0086  -0.2676   0.0308
  15 O   :2pz   -0.0060   0.0067  -0.0008   0.0084   0.9732
  16 O   :2px    0.0781   0.0255   0.1346  -0.0135   0.0089
  17 O   :2py    0.3253  -0.3656  -0.0004   0.2579  -0.0365
  18 O   :2pz   -0.0097   0.0118   0.0014  -0.0080  -1.1514
  19 H   :1s    -0.4825  -0.5995  -0.7667   0.1786  -0.0004
  20 H   :1s     0.3234   0.5742   1.1472  -0.9343  -0.0006
  21 H   :1s    -0.7760  -0.5915   0.8074   0.1813   0.0002
  22 H   :1s    -0.0971   0.5307  -1.1604  -0.9437   0.0002

 Printout of CI-coefficients abs greater than 0.05000 for root  1
 *** NOTE: this root is the reference state ***

 Printout of coefficients in interval  3.1623E-01 to  1.0000E+00
 ===============================================================

  Coefficient of CSF no.         1 is     -0.97651261   -9.76512613E-01
  Orbital          1   2   3
  Spin coupling    2   2   2

 Printout of coefficients in interval  1.0000E-01 to  3.1623E-01
 ===============================================================

  Coefficient of CSF no.         3 is      0.21200603    2.12006034E-01
  Orbital          1   3   4
  Spin coupling    2   2   2

 Printout of coefficients in interval  5.0000E-02 to  1.0000E-01
 ===============================================================
   ( no coefficients )

 Norm of printed CI vector ..      0.99852344

 Magnitude of CI coefficients
 ============================
 ( Ranges are relative to norm of vector :  1.00E+00 )

  10- 1 to 10- 0         2    0.99852344E+00      0.9985234426
  10- 2 to 10- 1         2    0.14765574E-02      1.0000000000
  Number of coefficients less than 10^-11 times norm is            6

  Total CPU  time used in SIRIUS :   0.70 seconds
  Total wall time used in SIRIUS :   0.71 seconds

 
     Date and time (Linux)  : Wed Jan  5 08:59:00 2022
     Host name              : foeroyar                                

 NOTE:    1 warnings have been issued.
 Check output, result, and error files for "WARNING".


                     .---------------------------------------.
                     | End of Wave Function Section (SIRIUS) |
                     `---------------------------------------'



        *****************************************************************
        ******** Output from **PROPE input processing for ABACUS ********
        *****************************************************************

     Environment effects are included through the PE library


 The following molecular properties will be calculated in this run:
 ------------------------------------------------------------------

 Default print level:        0

      Electronic excitation energies 
      Natural orbital connection is used
      for perturbation dependent basis sets.
     Environment effects are included through the PE library


 Changes of defaults for .EXCITA:
 --------------------------------

 Number of excitation energies:    2
 Print level          :    0
 Integral print level :    0
 Convergence threshold: 1.00E-04
 Maximum iterations   :   60
 Dipole strength

 INFO SIR_INTOPEN, old integral transformation not found as expected, ICASE = 3
 - ICASE = 1: MO integral file MOTWOINT does not exist
 - ICASE = 2: no MO integrals on MOTWOINT
 - ICASE = 3: transformation level on MOTWOINT not sufficient
 ITRLVL requested & ITRLVL on MOTWOINT :    4    3

 NSETUP: MO transformation level too low or no MO integral file found.
 NSETUP: generating MO 2-el. integral file. Transformation level: 4


 Old direct access AO file found, SORTA skipped.

 2-el. integral transformation level 4: Total CPU and WALL times (sec)       0.008       0.008

 Sorting integrals to Dirac format: Total CPU and WALL times (sec)       0.001       0.001

 Center of mass dipole origin  :   -3.067740   -0.312997    0.018175

 Center of mass gauge origin   :   -3.067740   -0.312997    0.018175


                 .------------------------------------------------.
                 | Starting in Static Property Section (ABACUS) - |
                 `------------------------------------------------'


 
     Date and time (Linux)  : Wed Jan  5 08:59:00 2022
     Host name              : foeroyar                                


                  **********************************************
                  *** ABACUS - Excitation energies (.EXCITA) ***
                  **********************************************

RSPORT:    1 out of    2 new trial vectors linear dependent
  Time used in EXCITA     is       0.59 seconds


   ***************************************************************************
   ************************ FINAL RESULTS from ABACUS ************************
   ***************************************************************************


 
     Date and time (Linux)  : Wed Jan  5 08:59:00 2022
     Host name              : foeroyar                                


                             Molecular geometry (au)
                             -----------------------

 C         -3.0015786160           -1.4563174382            0.0550080378
 O         -3.1314330364            0.8240509816           -0.0184248297
 H         -1.1728925345           -2.4468589606            0.1025195320
 H         -4.7395143797           -2.6116033945            0.0761219478





                        Molecular wave function and energy
                        ----------------------------------

     Spatial symmetry   1 ( A   )
     Spin multiplicity  1
     2 * M_S            0
     State number       1
     Total charge       0

     Total energy       -113.2880867393 au (Hartrees)
                         -3082.72565468 eV
                           -297437.8259 kJ/mol
                            -71089.3465 kcal/mol


                   Scalar Breit-Pauli relativistic corrections
                   -------------------------------------------

     Darwin correction:                          0.2036484303 au
     Mass-velocity correction:                  -0.2625992874 au

     Total relativistic correction:             -0.0589508572 au ( 0.0520%)
     Non-relativistic + relativistic energy:  -113.3470375965 au



      (Note that these corrections are NOT included in the results below.)


                                  Dipole moment
                                  -------------

                 au               Debye          C m (/(10**-30)
              1.130643           2.873808           9.585993


                             Dipole moment components
                             ------------------------

                 au               Debye          C m (/(10**-30)

      x      0.14773234         0.37549813         1.25252696
      y     -1.12046561        -2.84793933        -9.49970307
      z      0.03295571         0.08376505         0.27941012


   Units:   1 a.u. =   2.54175 Debye 
            1 a.u. =   8.47835 (10**-30) C m (SI)




@               Singlet electronic excitation energies
                --------------------------------------

               ========================================
                 Sym.   Mode   Frequency    Frequency
                ex. st.  No.      (au)         (eV)
               ----------------------------------------
                   1      1     0.150135     4.085371
                   1      2     0.336322     9.151786
               ========================================


@               Electric transition dipole moments (au)
                ---------------------------------------

@        Mode    Frequency       Velocity/Frequency              Length
@         No.      (au)          x       y       z         x       y       z
@==============================================================================
@           1     0.150135     0.0012 -0.0024 -0.0683   -0.0007  0.0005 -0.0149
@           2     0.336322    -0.0024  0.0097  0.3219   -0.0010  0.0047  0.1807
@------------------------------------------------------------------------------


@                              Oscillator strengths
                               --------------------

@  Oscillator strengths are dimensionless.

@  Sym.   Mode        Frequency     Oscillator-strength
@ ex. st.  No.           (eV)        velocity   length
@ -------------------------------------------------------
@  1        1         4.085371        0.0005   0.0000
@  1        2         9.151786        0.0233   0.0073


   Interatomic separations (in Angstrom):
   --------------------------------------

            C           O           H           H     
            ------      ------      ------      ------
 C     :    0.000000
 O     :    1.209298    0.000000
 H     :    1.100831    2.018474    0.000000
 H     :    1.104391    2.007988    1.889439    0.000000


  Max    interatomic separation is    2.0185 Angstrom (    3.8144 Bohr)
  between atoms    3 and    2, "H     " and "O     ".

  Min HX interatomic separation is    1.1008 Angstrom (    2.0803 Bohr)

  Min YX interatomic separation is    1.2093 Angstrom (    2.2852 Bohr)


  Bond distances (Angstrom):
  --------------------------

                  atom 1     atom 2       distance
                  ------     ------       --------
  bond distance:  O          C            1.209298
  bond distance:  H          C            1.100831
  bond distance:  H          C            1.104391


  Bond angles (degrees):
  ----------------------

                  atom 1     atom 2     atom 3         angle
                  ------     ------     ------         -----
  bond angle:     O          C          H            121.724
  bond angle:     O          C          H            120.357
  bond angle:     H          C          H            117.919


  Total CPU  time used in ABACUS:   0.59 seconds
  Total wall time used in ABACUS:   0.59 seconds


                   .-------------------------------------------.
                   | End of Static Property Section (ABACUS) - |
                   `-------------------------------------------'

  Total CPU  time used in DALTON:   1.31 seconds
  Total wall time used in DALTON:   1.32 seconds

 
     Date and time (Linux)  : Wed Jan  5 08:59:00 2022
     Host name              : foeroyar                                
