

     ************************************************************************
     *************** Dalton - An Electronic Structure Program ***************
     ************************************************************************

    This is output from DALTON release Dalton2020.0.1 (2020)
         ( Web site: http://daltonprogram.org )

   ----------------------------------------------------------------------------

    NOTE:
     
    Dalton is an experimental code for the evaluation of molecular
    properties using (MC)SCF, DFT, CI, and CC wave functions.
    The authors accept no responsibility for the performance of
    the code or for the correctness of the results.
     
    The code (in whole or part) is provided under a licence and
    is not to be reproduced for further distribution without
    the written permission of the authors or their representatives.
     
    See the home page "http://daltonprogram.org" for further information.
     
    If results obtained with this code are published,
    the appropriate citations would be both of:
     
       K. Aidas, C. Angeli, K. L. Bak, V. Bakken, R. Bast,
       L. Boman, O. Christiansen, R. Cimiraglia, S. Coriani,
       P. Dahle, E. K. Dalskov, U. Ekstroem,
       T. Enevoldsen, J. J. Eriksen, P. Ettenhuber, B. Fernandez,
       L. Ferrighi, H. Fliegl, L. Frediani, K. Hald, A. Halkier,
       C. Haettig, H. Heiberg, T. Helgaker, A. C. Hennum,
       H. Hettema, E. Hjertenaes, S. Hoest, I.-M. Hoeyvik,
       M. F. Iozzi, B. Jansik, H. J. Aa. Jensen, D. Jonsson,
       P. Joergensen, J. Kauczor, S. Kirpekar,
       T. Kjaergaard, W. Klopper, S. Knecht, R. Kobayashi, H. Koch,
       J. Kongsted, A. Krapp, K. Kristensen, A. Ligabue,
       O. B. Lutnaes, J. I. Melo, K. V. Mikkelsen, R. H. Myhre,
       C. Neiss, C. B. Nielsen, P. Norman, J. Olsen,
       J. M. H. Olsen, A. Osted, M. J. Packer, F. Pawlowski,
       T. B. Pedersen, P. F. Provasi, S. Reine, Z. Rinkevicius,
       T. A. Ruden, K. Ruud, V. Rybkin, P. Salek, C. C. M. Samson,
       A. Sanchez de Meras, T. Saue, S. P. A. Sauer,
       B. Schimmelpfennig, K. Sneskov, A. H. Steindal,
       K. O. Sylvester-Hvid, P. R. Taylor, A. M. Teale,
       E. I. Tellgren, D. P. Tew, A. J. Thorvaldsen, L. Thoegersen,
       O. Vahtras, M. A. Watson, D. J. D. Wilson, M. Ziolkowski
       and H. Agren,
       "The Dalton quantum chemistry program system",
       WIREs Comput. Mol. Sci. 2014, 4:269–284 (doi: 10.1002/wcms.1172)
     
    and
     
       Dalton, a molecular electronic structure program,
       Release Dalton2020.0.1 (2020), see http://daltonprogram.org
   ----------------------------------------------------------------------------

    Authors in alphabetical order (Major contribution(s) in parenthesis):

  Kestutis Aidas,           Vilnius University,           Lithuania   (QM/MM)
  Celestino Angeli,         University of Ferrara,        Italy       (NEVPT2)
  Keld L. Bak,              UNI-C,                        Denmark     (AOSOPPA, non-adiabatic coupling, magnetic properties)
  Vebjoern Bakken,          University of Oslo,           Norway      (DALTON; geometry optimizer, symmetry detection)
  Radovan Bast,             UiT The Arctic U. of Norway,  Norway      (DALTON installation and execution frameworks)
  Pablo Baudin,             University of Valencia,       Spain       (Cholesky excitation energies)
  Linus Boman,              NTNU,                         Norway      (Cholesky decomposition and subsystems)
  Bruno N. Cabral Tenorio,  Technical Univ. of Denmark,   Denmark     (Lanczos-based CC methods)
  Ove Christiansen,         Aarhus University,            Denmark     (CC module)
  Renzo Cimiraglia,         University of Ferrara,        Italy       (NEVPT2)
  Sonia Coriani,            Technical Univ. of Denmark,   Denmark     (CC and RESPONS modules)
  Janusz Cukras,            University of Warsaw,         Poland      (MChD in RESPONS)
  Paal Dahle,               University of Oslo,           Norway      (Parallelization)
  Erik K. Dalskov,          UNI-C,                        Denmark     (SOPPA)
  Thomas Enevoldsen,        Univ. of Southern Denmark,    Denmark     (SOPPA)
  Janus J. Eriksen,         Aarhus University,            Denmark     (Polarizable embedding, TDA)
  Rasmus Faber,             Technical Univ. of Denmark,   Denmark     (Vib.avg. NMR w. SOPPA, parallel AO-SOPPA, CVS-CC and EOMCC)
  Tobias Fahleson,          KTH Stockholm,                Sweden      (Damped cubic response)
  Berta Fernandez,          U. of Santiago de Compostela, Spain       (Doublet spin, ESR in RESPONS)
  Lara Ferrighi,            Aarhus University,            Denmark     (PCM Cubic response)
  Heike Fliegl,             University of Oslo,           Norway      (CCSD(R12))
  Luca Frediani,            UiT The Arctic U. of Norway,  Norway      (PCM)
  Emmanuel Fromager,        Univ. Strasbourg,             France      (MC-srDFT)
  Bin Gao,                  UiT The Arctic U. of Norway,  Norway      (Gen1Int library)
  Andre S. P. Gomes,        CNRS/Universite de Lille,     France      (Frozen density embedding)
  Christof Haettig,         Ruhr-University Bochum,       Germany     (CC module)
  Kasper Hald,              Aarhus University,            Denmark     (CC module)
  Asger Halkier,            Aarhus University,            Denmark     (CC module)
  Frederik Beyer Hansen,    University of Copenhagen,     Denmark     (Parallel AO-SOPPA)
  Erik D. Hedegaard,        Univ. of Southern Denmark,    Denmark     (Polarizable embedding, QM/MM, and MC-srDFT)
  Hanne Heiberg,            University of Oslo,           Norway      (Geometry analysis, selected one-electron integrals)
  Trygve Helgaker,          University of Oslo,           Norway      (DALTON; ABACUS, ERI, DFT modules, London, and much more)
  Alf Christian Hennum,     University of Oslo,           Norway      (Parity violation)
  Hinne Hettema,            University of Auckland,       New Zealand (Quadratic response in RESPONS; SIRIUS supersymmetry)
  Eirik Hjertenaes,         NTNU,                         Norway      (Cholesky decomposition)
  Pi A. B. Haase,           University of Copenhagen,     Denmark     (Triplet AO-SOPPA)
  Maria Francesca Iozzi,    University of Oslo,           Norway      (RPA)
  Christoph Jacob           TU Braunschweig               Germany     (Frozen density embedding)
  Brano Jansik              Technical Univ. of Ostrava    Czech Rep.  (DFT cubic response)
  Hans Joergen Aa. Jensen,  Univ. of Southern Denmark,    Denmark     (DALTON; SIRIUS, RESPONS, ABACUS, MC-srDFT, and much more)
  Dan Jonsson,              UiT The Arctic U. of Norway,  Norway      (Cubic response in RESPONS module)
  Poul Joergensen,          Aarhus University,            Denmark     (RESPONS, ABACUS, and CC modules)
  Maciej Kaminski,          University of Warsaw,         Poland      (CPPh in RESPONS)
  Joanna Kauczor,           Linkoeping University,        Sweden      (Complex polarization propagator (CPP) module)
  Sheela Kirpekar,          Univ. of Southern Denmark,    Denmark     (Mass-velocity & Darwin integrals)
  Erik Kjellgren,           Univ. of Southern Denmark,    Denmark     (MC-srDFT)
  Wim Klopper,              KIT Karlsruhe,                Germany     (R12 code in CC, SIRIUS, and ABACUS modules)
  Stefan Knecht,            ETH Zurich,                   Switzerland (Parallel CI and MCSCF, MC-srDFT)
  Rika Kobayashi,           Australian National Univ.,    Australia   (DIIS in CC, London in MCSCF)
  Henrik Koch,              NTNU,                         Norway      (CC module, Cholesky decomposition)
  Jacob Kongsted,           Univ. of Southern Denmark,    Denmark     (Polarizable embedding, polarizable density embedding, QM/MM)
  Andrea Ligabue,           University of Modena,         Italy       (CTOCD, AOSOPPA)
  Nanna H. List             Univ. of Southern Denmark,    Denmark     (Polarizable embedding)
  Ola B. Lutnaes,           University of Oslo,           Norway      (DFT Hessian)
  Juan I. Melo,             University of Buenos Aires,   Argentina   (LRESC, Relativistic Effects on NMR Shieldings)
  Kurt V. Mikkelsen,        University of Copenhagen,     Denmark     (MC-SCRF and QM/MM)
  Rolf H. Myhre,            NTNU,                         Norway      (Subsystems and CC3)
  Christian Neiss,          Univ. Erlangen-Nuernberg,     Germany     (CCSD(R12))
  Christian B. Nielsen,     University of Copenhagen,     Denmark     (QM/MM)
  Patrick Norman,           KTH Stockholm,                Sweden      (Cubic response and complex frequency response in RESPONS)
  Jeppe Olsen,              Aarhus University,            Denmark     (SIRIUS CI/density modules)
  Jogvan Magnus H. Olsen,   Aarhus University,            Denmark     (Polarizable embedding and polarizable density embedding)
  Anders Osted,             Copenhagen University,        Denmark     (QM/MM)
  Martin J. Packer,         University of Sheffield,      UK          (SOPPA)
  Filip Pawlowski,          Kazimierz Wielki University,  Poland      (CC3)
  Morten N. Pedersen,       Univ. of Southern Denmark,    Denmark     (Polarizable embedding)
  Thomas B. Pedersen,       University of Oslo,           Norway      (Cholesky decomposition)
  Patricio F. Provasi,      University of Northeastern,   Argentina   (Analysis of coupling constants in localized orbitals)
  Peter Reinholdt,          Univ. of Southern Denmark,    Denmark     (Polarizable embedding and polarizable density embedding)
  Zilvinas Rinkevicius,     KTH Stockholm,                Sweden      (open-shell DFT, ESR)
  Elias Rudberg,            KTH Stockholm,                Sweden      (DFT grid and basis info)
  Torgeir A. Ruden,         University of Oslo,           Norway      (Numerical derivatives in ABACUS)
  Kenneth Ruud,             UiT The Arctic U. of Norway,  Norway      (DALTON; ABACUS magnetic properties and much more)
  Pawel Salek,              KTH Stockholm,                Sweden      (DALTON; DFT code)
  Claire C. M. Samson       University of Karlsruhe       Germany     (Boys localization, r12 integrals in ERI)
  Alfredo Sanchez de Meras, University of Valencia,       Spain       (CC module, Cholesky decomposition)
  Trond Saue,               Paul Sabatier University,     France      (direct Fock matrix construction)
  Stephan P. A. Sauer,      University of Copenhagen,     Denmark     (SOPPA(CCSD), SOPPA prop., AOSOPPA, vibrational g-factors)
  Bernd Schimmelpfennig,    Forschungszentrum Karlsruhe,  Germany     (AMFI module)
  Anna K. Schnack-Petersen, University of Copenhagen,     Denmark     (RPA(D) and HRPA(D) properties in AOSOPPA)
  Kristian Sneskov,         Aarhus University,            Denmark     (Polarizable embedding, QM/MM)
  Arnfinn H. Steindal,      UiT The Arctic U. of Norway,  Norway      (parallel QM/MM, polarizable embedding)
  Casper Steinmann,         Aalborg University,           Denmark     (QFIT, polarizable embedding)
  K. O. Sylvester-Hvid,     University of Copenhagen,     Denmark     (MC-SCRF)
  Peter R. Taylor,          VLSCI/Univ. of Melbourne,     Australia   (Symmetry handling ABACUS, integral transformation)
  Andrew M. Teale,          University of Nottingham,     England     (DFT-AC, DFT-D)
  David P. Tew,             University of Bristol,        England     (CCSD(R12))
  Julien Toulouse,          Sorbonne Univ.,               France      (MC-srDFT)
  Olav Vahtras,             KTH Stockholm,                Sweden      (Triplet response, spin-orbit, ESR, TDDFT, open-shell DFT)
  Lucas Visscher,           Vrije Universiteit Amsterdam, Netherlands (Frozen density embedding)
  David J. Wilson,          La Trobe University,          Australia   (DFT Hessian and DFT magnetizabilities)
  Hans Agren,               KTH Stockholm,                Sweden      (SIRIUS module, RESPONS, MC-SCRF solvation)
 --------------------------------------------------------------------------------

     Date and time (Linux)  : Wed Jan  5 08:58:57 2022
     Host name              : foeroyar                                

 * Work memory size             :    64000000 =  488.28 megabytes.

 * Directories for basis set searches:
   1) /home/foeroyingur/Projects/dalton_devel/dalton/build_pelib/test/pemcscf
   2) /home/foeroyingur/Projects/dalton_devel/dalton/build_pelib/basis


Compilation information
-----------------------

 Who compiled             | foeroyingur
 Host                     | foeroyar
 System                   | Linux-5.15.12-200.fc35.x86_64
 CMake generator          | Unix Makefiles
 Processor                | x86_64
 64-bit integers          | OFF
 MPI                      | OFF
 Fortran compiler         | /usr/bin/gfortran
 Fortran compiler version | GNU Fortran (GCC) 11.2.1 20211203 (Red Hat 11.2.1-
                          | 7)
 C compiler               | /usr/bin/gcc
 C compiler version       | gcc (GCC) 11.2.1 20211203 (Red Hat 11.2.1-7)
 C++ compiler             | /usr/bin/g++
 C++ compiler version     | g++ (GCC) 11.2.1 20211203 (Red Hat 11.2.1-7)
 BLAS                     | /lib64/libopenblas.so
 LAPACK                   | /lib64/liblapack.so
 Static linking           | OFF
 Last Git revision        | e4aa03a748637131d70017ea2c64070859e19a35
 Git branch               | update-pelib
 Configuration time       | 2022-01-05 08:50:52.280451


   Content of the .dal input file
 ----------------------------------

**DALTON
.RUN PROPERTIES
.PELIB
**WAVE FUNCTIONS
.HF
.MCSCF
*SCF INPUT
.NODIIS
*CONFIGURATION INPUT
.SYMMETRY
 1
.SPIN MUL
 1
.INACTIVE
 6
.ELECTRONS
 4
.CAS SPACE
 4
**PROPERTIES
.EXCITA
*EXCITA
.NEXCIT
 2
.DIPSTR
**END OF


   Content of the .mol file
 ----------------------------

BASIS
3-21G
Formaldehyde
------------------------
AtomTypes=3 NoSymmetry Angstrom
Charge=6.0 Atoms=1
C           -1.588367    -.770650     .029109
Charge=8.0 Atoms=1
O           -1.657083     .436069    -.009750
Charge=1.0 Atoms=2
H           -.620668   -1.294822      .054251
H           -2.508043   -1.382001     .040282


       *******************************************************************
       *********** Output from DALTON general input processing ***********
       *******************************************************************

 --------------------------------------------------------------------------------
   Overall default print level:    0
   Print level for DALTON.STAT:    1

    HERMIT 1- and 2-electron integral sections will be executed
    "Old" integral transformation used (limited to max 255 basis functions)
    Wave function sections will be executed (SIRIUS module)
    Static molecular property section will be executed (ABACUS module)
    Environment effects are included (PElib)
 --------------------------------------------------------------------------------


   ****************************************************************************
   *************** Output of molecule and basis set information ***************
   ****************************************************************************


    The two title cards from your ".mol" input:
    ------------------------------------------------------------------------
 1: Formaldehyde                                                            
 2: ------------------------                                                
    ------------------------------------------------------------------------

  Coordinates are entered in Angstrom and converted to atomic units.
          - Conversion factor : 1 bohr = 0.52917721 A

  Atomic type no.    1
  --------------------
  Nuclear charge:   6.00000
  Number of symmetry independent centers:    1
  Number of basis sets to read;    2
  Basis set file used for this atomic type with Z =   6 :
     "/home/foeroyingur/Projects/dalton_devel/dalton/build_pelib/basis/3-21G"

  Info about the basis set file: your basis has no documentation.
  Basis set: 3-21G                                                                           

  Atomic type no.    2
  --------------------
  Nuclear charge:   8.00000
  Number of symmetry independent centers:    1
  Number of basis sets to read;    2
  Basis set file used for this atomic type with Z =   8 :
     "/home/foeroyingur/Projects/dalton_devel/dalton/build_pelib/basis/3-21G"

  Info about the basis set file: your basis has no documentation.
  Basis set: 3-21G                                                                           

  Atomic type no.    3
  --------------------
  Nuclear charge:   1.00000
  Number of symmetry independent centers:    2
  Number of basis sets to read;    2
  Basis set file used for this atomic type with Z =   1 :
     "/home/foeroyingur/Projects/dalton_devel/dalton/build_pelib/basis/3-21G"

  Info about the basis set file: your basis has no documentation.
  Basis set: 3-21G                                                                           


                         SYMGRP: Point group information
                         -------------------------------

@    Point group: C1 


                                 Isotopic Masses
                                 ---------------

                           C          12.000000
                           O          15.994915
                           H           1.007825
                           H           1.007825

                       Total mass:    30.010565 amu
                       Natural abundance:  98.633 %

 Center-of-mass coordinates (a.u.):   -3.067740   -0.312997    0.018175
 Center-of-mass coordinates (Angs):   -1.623378   -0.165631    0.009618


  Atoms and basis sets
  --------------------

  Number of atom types :    3
  Total number of atoms:    4

  Basis set used is "3-21G" from the basis set library.

  label    atoms   charge   prim   cont     basis
  ----------------------------------------------------------------------
  C           1    6.0000    15     9      [6s3p|3s2p]                                        
  O           1    8.0000    15     9      [6s3p|3s2p]                                        
  H           2    1.0000     3     2      [3s|2s]                                            
  ----------------------------------------------------------------------
  total:      4   16.0000    36    22
  ----------------------------------------------------------------------

  Threshold for neglecting AO integrals:  1.00D-12


  Cartesian Coordinates (a.u.)
  ----------------------------

  Total number of coordinates:   12
  C       :     1  x  -3.0015786160    2  y  -1.4563174382    3  z   0.0550080378
  O       :     4  x  -3.1314330364    5  y   0.8240509816    6  z  -0.0184248297
  H       :     7  x  -1.1728925345    8  y  -2.4468589606    9  z   0.1025195320
  H       :    10  x  -4.7395143797   11  y  -2.6116033945   12  z   0.0761219478


   Interatomic separations (in Angstrom):
   --------------------------------------

            C           O           H           H     
            ------      ------      ------      ------
 C     :    0.000000
 O     :    1.209298    0.000000
 H     :    1.100831    2.018474    0.000000
 H     :    1.104391    2.007988    1.889439    0.000000


  Max    interatomic separation is    2.0185 Angstrom (    3.8144 Bohr)
  between atoms    3 and    2, "H     " and "O     ".

  Min HX interatomic separation is    1.1008 Angstrom (    2.0803 Bohr)

  Min YX interatomic separation is    1.2093 Angstrom (    2.2852 Bohr)


  Bond distances (Angstrom):
  --------------------------

                  atom 1     atom 2       distance
                  ------     ------       --------
  bond distance:  O          C            1.209298
  bond distance:  H          C            1.100831
  bond distance:  H          C            1.104391


  Bond angles (degrees):
  ----------------------

                  atom 1     atom 2     atom 3         angle
                  ------     ------     ------         -----
  bond angle:     O          C          H            121.724
  bond angle:     O          C          H            120.357
  bond angle:     H          C          H            117.919




 Principal moments of inertia (u*A**2) and principal axes
 --------------------------------------------------------

   IA       1.798871         -0.056827    0.997867   -0.032124
   IB      13.009178          0.998345    0.057081    0.007042
   IC      14.808049         -0.008861    0.031671    0.999459


 Rotational constants
 --------------------

@    The molecule is planar.

               A                   B                   C

         280942.3015          38847.8806          34128.6681 MHz
            9.371226            1.295826            1.138410 cm-1


@  Nuclear repulsion energy :   31.249215315972 Hartree

  Reading potential input file for polarizable embedding calculation

    .------------------------------------------------.
    | Information from polarizable embedding library |
    `------------------------------------------------´

      Number of classical sites:      6

      Multipole moments upto 2nd order.

      Dipole-dipole polarizabilities.

      Iterative solver for induced moments will be used
      with convergence threshold: 1.0E-08
      Total charge of classical region:   -0.0000
 


                     .---------------------------------------.
                     | Starting in Integral Section (HERMIT) |
                     `---------------------------------------'



 ***************************************************************************************
 ****************** Output from **INTEGRALS input processing (HERMIT) ******************
 ***************************************************************************************


 - Using defaults, no **INTEGRALS input found

 Default print level:        1

 Calculation of one- and two-electron Hamiltonian integrals.

 Center of mass  (bohr):     -3.067740315293     -0.312997395263      0.018174673399
 Operator center (bohr):      0.000000000000      0.000000000000      0.000000000000
 Gauge origin    (bohr):      0.000000000000      0.000000000000      0.000000000000
 Dipole origin   (bohr):      0.000000000000      0.000000000000      0.000000000000

Calculation of 2-electron integrals are postponed until they are needed.


     ************************************************************************
     ************************** Output from HERINT **************************
     ************************************************************************



                      Nuclear contribution to dipole moments
                      --------------------------------------

                 au               Debye          C m (/(10**-30)

      x    -48.97334290      -124.47781350      -415.21329231
      y     -7.20395913       -18.31063652       -61.07770905
      z      0.36129107         0.91831024         3.06315324


  Total CPU  time used in HERMIT:   0.01 seconds
  Total wall time used in HERMIT:   0.01 seconds


                        .----------------------------------.
                        | End of Integral Section (HERMIT) |
                        `----------------------------------'



                   .--------------------------------------------.
                   | Starting in Wave Function Section (SIRIUS) |
                   `--------------------------------------------'


 *** Output from Huckel module :

     Using EWMO model:          T
     Using EHT  model:          F
     Number of Huckel orbitals each symmetry:   12

 EWMO - Energy Weighted Maximum Overlap - is a Huckel type method,
        which normally is better than Extended Huckel Theory.
 Reference: Linderberg and Ohrn, Propagators in Quantum Chemistry (Wiley, 1973)

 Huckel EWMO eigenvalues for symmetry :  1
          -20.684762     -11.351957      -1.632119      -1.046130      -0.813248
           -0.702067      -0.605910      -0.491826      -0.321033      -0.161573
           -0.131670      -0.108806

 SETCI, core memory needed for CI:
 LCINDX =         200
 LACIMX =         494
 LBCIMX =           0

 Number of determinants:            36

 Number of configurations:          20

 Time used in SETCI :      0.02s

 **********************************************************************
 *SIRIUS* a direct, restricted step, second order MCSCF program       *
 **********************************************************************

 
     Date and time (Linux)  : Wed Jan  5 08:58:57 2022
     Host name              : foeroyar                                

 Title lines from ".mol" input file:
     Formaldehyde                                                            
     ------------------------                                                

 Print level on unit LUPRI =   2 is   0
 Print level on unit LUW4  =   2 is   5

@    MCSCF optimization.
@              Type: complete active space calculation (CAS).

@    This is a combination run starting with
@              a restricted, closed shell Hartree-Fock calculation


 Initial molecular orbitals are obtained according to
 ".MOSTART EWMO  " input option

@    QM part is embedded in an environment :

@         Model: PE

     Wave function specification
     ============================

     Wave function environment is modeled using the
     polarizable embedding model (PE library).

@    Wave function type        --- PE-MC-SCF ---
@    Number of closed shell electrons          12
@    Number of electrons in active shells       4
@    Total charge of the molecule               0

@    Spin multiplicity and 2 M_S                1         0
@    Total number of symmetries                 1 (point group: C1 )
@    Reference state symmetry                   1 (irrep name : A  )

     Orbital specifications
     ======================
@    Abelian symmetry species          All |    1
@                                          |  A  
                                       --- |  ---
@    Inactive orbitals                   6 |    6
@    Active orbitals                     4 |    4
@    Secondary orbitals                 12 |   12
@    Total number of orbitals           22 |   22
@    Number of basis functions          22 |   22

      -- Initial occupation of symmetries is determined from total charge (only one symmetry!)
      -- Initial occupation of symmetries is :
@    Occupied SCF orbitals               8 |    8

     Optimization information
     ========================
@    Number of configurations                20
@    Number of orbital rotations            144
     ------------------------------------------
@    Total number of variables              164

     Maximum number of macro iterations      25
     Maximum number of micro iterations     600
     Threshold for MCSCF gradient      1.00D-05
     Number of initial trial vectors          1
     Number of initial CI iterations         -1
     Number of simultaneous trial vectors     1

@    This calculation converges to the lowest state for the specified symmetry and spin species.

     Maximum number of NEO/NR iterations  24


        SIRIUS QC-HF optimization (SIROPT)
 ================================================


   --- OUTPUT FROM SIRCNO     Keyword = ONLYFD


Calculating AOSUPINT

---> (Re)generating AOTWOINT


     ************************************************************************
     ************************** Output from HERINT **************************
     ************************************************************************


 Threshold for neglecting two-electron integrals:  1.00D-12
 HERMIT - Number of two-electron integrals written:       30470 ( 94.8% )
 HERMIT - Megabytes written:                              0.350

     (Precalculated AO two-electron integrals are transformed to P-supermatrix elements.
      Threshold for discarding integrals :  1.00D-12 )


 --- MACRO ITERATION  1 ---
 --------------------------

 Total QC-HF energy       :          -112.861663729167489  (MACRO    1)

 - Nuclear repulsion      :            31.249215315972382
 - Inactive energy        :          -144.078112564774983
 - Active energy          :             0.000000000000000
 - Embedding energy       :            -0.032766480364886

 Norm of total gradient   :             2.493589011253
 -    of CI gradient      :             0.000000000000
 -    of orbital gradient :             2.493589011253
      Virial theorem: -V/T =      2.000510
@    MULPOP   C       1.01; O      -0.72; H      -0.15; H      -0.15; 

 Residual norm when dim(red L) =   3
 NEO root     CSF        orbital          total
    1     0.00000000     0.29031462     0.29031462 converged

 (NEONEX) NEO vector is converged.

   --- OUTPUT FROM SIRCNO     Keyword = FD+NO 



 --- MACRO ITERATION  2 ---
 --------------------------

 Total QC-HF energy       :          -113.228746190091130  (MACRO    2)

 - Nuclear repulsion      :            31.249215315972382
 - Inactive energy        :          -144.454198311224104
 - Active energy          :             0.000000000000000
 - Embedding energy       :            -0.023763194839399

 Norm of total gradient   :             0.585464317077
 -    of CI gradient      :             0.000000000000
 -    of orbital gradient :             0.585464317077
      Virial theorem: -V/T =      2.001133
@    MULPOP   C      -0.03; O      -0.37; H       0.23; H       0.16; 

 Residual norm when dim(red L) =   3
 NEO root     CSF        orbital          total
    1     0.00000000     0.04382535     0.04382535 converged

 (NEONEX) NEO vector is converged.

   --- OUTPUT FROM SIRCNO     Keyword = FD+NO 



 --- MACRO ITERATION  3 ---
 --------------------------

 Total QC-HF energy       :          -113.247088338369664  (MACRO    3)

 - Nuclear repulsion      :            31.249215315972382
 - Inactive energy        :          -144.467591508693545
 - Active energy          :             0.000000000000000
 - Embedding energy       :            -0.028712145648503

 Norm of total gradient   :             0.045379803545
 -    of CI gradient      :             0.000000000000
 -    of orbital gradient :             0.045379803545
      Virial theorem: -V/T =      2.003691
@    MULPOP   C       0.13; O      -0.56; H       0.26; H       0.17; 

 Residual norm when dim(red L) =   3
 NEO root     CSF        orbital          total
    1     0.00000000     0.00582754     0.00582754 converged

 (NEONEX) NEO vector is converged.

   --- OUTPUT FROM SIRCNO     Keyword = FD+NO 



 --- MACRO ITERATION  4 ---
 --------------------------

 Total QC-HF energy       :          -113.247236056485846  (MACRO    4)

 - Nuclear repulsion      :            31.249215315972382
 - Inactive energy        :          -144.467133594999240
 - Active energy          :             0.000000000000000
 - Embedding energy       :            -0.029317777458982

 Norm of total gradient   :             0.005816875026
 -    of CI gradient      :             0.000000000000
 -    of orbital gradient :             0.005816875026
      Virial theorem: -V/T =      2.003113
@    MULPOP   C       0.12; O      -0.57; H       0.27; H       0.18; 

 Residual norm when dim(red L) =   4
 NEO root     CSF        orbital          total
    1     0.00000000     0.00019365     0.00019365 converged

 (NEONEX) NEO vector is converged.

   --- OUTPUT FROM SIRCNO     Keyword = FD+NO 



 --- MACRO ITERATION  5 ---
 --------------------------

 Total QC-HF energy       :          -113.247238748812563  (MACRO    5)

 - Nuclear repulsion      :            31.249215315972382
 - Inactive energy        :          -144.467149787458368
 - Active energy          :             0.000000000000000
 - Embedding energy       :            -0.029304277326569

 Norm of total gradient   :             0.000193638227
 -    of CI gradient      :             0.000000000000
 -    of orbital gradient :             0.000193638227
      Virial theorem: -V/T =      2.003164
@    MULPOP   C       0.12; O      -0.57; H       0.27; H       0.18; 

 Residual norm when dim(red L) =   5
 NEO root     CSF        orbital          total
    1     0.00000000     0.00000842     0.00000842 converged

 (NEONEX) NEO vector is converged.

   --- OUTPUT FROM SIRCNO     Keyword = FD+NO 



 --- MACRO ITERATION  6 ---
 --------------------------

 Total QC-HF energy       :          -113.247238753714427  (MACRO    6)

 - Nuclear repulsion      :            31.249215315972382
 - Inactive energy        :          -144.467151140726571
 - Active energy          :             0.000000000000000
 - Embedding energy       :            -0.029302928960238

 Norm of total gradient   :             0.000008418309
 -    of CI gradient      :             0.000000000000
 -    of orbital gradient :             0.000008418309
      Virial theorem: -V/T =      2.003164
@    MULPOP   C       0.12; O      -0.57; H       0.27; H       0.18; 

 (SIRSTP) Energy difference;
 actual, predicted and ratio:  -0.000000004901864  -0.000000004897336    1.000925
 Close to convergence, ratio set to one.

 *** Optimization control: QC-HF converged ***
     Number of macro iterations used            6
     Number of micro iterations used           13
     Total number of CPU seconds used         0.15
     Total WALL time used (seconds)           0.15

    .--------------------------------------------------.
    | Final results from polarizable embedding library |
    `--------------------------------------------------´

        Polarizable embedding energy contributions:
       ---------------------------------------------

       Electrostatic contributions:
            Electronic                -0.216139251312
            Nuclear                    0.196501001970
            Multipole                  0.000000000000
            Total                     -0.019638249342

       Polarization contributions:
            Electronic                -0.066611330325
            Nuclear                    0.062514712245
            Multipole                 -0.005568061532
            Total                     -0.009664679612

       Total PE energy:               -0.029302928954
            (excl. multipole-multipole interaction energy)


 *** SCF orbital energy analysis ***
    (incl. contribution from polarizable embedding potential)

 Number of electrons :   16
 Orbital occupations :    8

 Sym       Hartree-Fock orbital energies

1 A     -20.49039585   -11.29029948    -1.42742771    -0.86339914    -0.70285903
         -0.65087471    -0.53906177    -0.44689909     0.13888456     0.29022897
          0.37915831     0.44751620     0.92871910     1.02602810     1.03294539
          1.14637627     1.27593329     1.56688226     1.85258653     1.87940146
          1.95617604     3.31244276

    E(LUMO) :     0.13888456 au (symmetry 1)
  - E(HOMO) :    -0.44689909 au (symmetry 1)
  ------------------------------------------
    gap     :     0.58578365 au

 NOTE: MOLECULAR ORBITALS ARE NOT CANONICAL HARTREE-FOCK ORBITALS

 Largest off-diagonal Fock matrix element is  2.44D-02

 CPU and wall time for SCF :       0.153       0.154


        SIRIUS MCSCF optimization (SIROPT)
 ================================================



 ----- Output from SIRIUS CI module (CICTL) -----




 2-el. integral transformation level 0: Total CPU and WALL times (sec)       0.003       0.003

 (CIST1) 8 lowest diagonal elements:

 Element no. Config.no.    Active energy      Total energy

         1 :          1     -4.9835232036   -113.2179358248
         2 :          7     -4.8330887130   -113.0675013341
         3 :         10     -4.6560993958   -112.8905120169
         4 :          8     -4.5650998620   -112.7995124831
         5 :          2     -4.5203736050   -112.7547862261
         6 :         11     -4.4727526714   -112.7071652925
         7 :         13     -4.4516571299   -112.6860697511
         8 :          3     -4.2636797277   -112.4980923489
First 1 elements used as separate start vectors.


 Convergence threshold for CI optimization :     0.01000000


 The requested root number is now converged.


 *** CI converged in  3 iterations.



@ Final CI energies and residuals in symmetry 1 (irrep A  )
@    1     -113.251691408931194       2.21D-03

   --- OUTPUT FROM SIRCNO     Keyword = ONLYFD



 --- MACRO ITERATION  1 ---
 --------------------------

 2-el. integral transformation level 3: Total CPU and WALL times (sec)       0.006       0.005

 Total MCSCF energy       :          -113.275965923876583  (MACRO    1)

 - Nuclear repulsion      :            31.249215315972382
 - Inactive energy        :          -139.483627937081849
 - Active energy          :            -5.017278787821703
 - Embedding energy       :            -0.024274514945411

 Norm of total gradient   :             0.193959953298
 -    of CI gradient      :             0.046705632710
 -    of orbital gradient :             0.188252615803


 *** Label "NATOCC  " not found on SIRIUS.RST in SIRPOP

 WARNING, occupation of active orbitals not available
          population analysis aborted.
          Use ".TRACI" option.


 (SIRNEO) iteration (  1,  4)
 Micro iteration termination criterion met, EVAL(ISTATE+1) = -9.32D-03

   --- OUTPUT FROM SIRCNO     Keyword = FD+NO 


 Occupations of CAS natural orbitals:

 Symmetry  1 ( irrep A   in C1  )

   1.863257527   1.988803205   0.138665239   0.009274029


 --- MACRO ITERATION  2 ---
 --------------------------

 2-el. integral transformation level 3: Total CPU and WALL times (sec)       0.006       0.006

 Total MCSCF energy       :          -113.287224296234598  (MACRO    2)

 - Nuclear repulsion      :            31.249215315972382
 - Inactive energy        :          -139.688213997186438
 - Active energy          :            -4.822217977260038
 - Embedding energy       :            -0.026007637760502

 Norm of total gradient   :             0.156142285749
 -    of CI gradient      :             0.137835780326
 -    of orbital gradient :             0.073360146271
      Virial theorem: -V/T =      2.001175
@    MULPOP   C       0.06; O      -0.49; H       0.26; H       0.17; 

 (SIRNEO) iteration (  2,  2)
 Micro iteration termination criterion met, EVAL(ISTATE+1) = -2.37D-03

   --- OUTPUT FROM SIRCNO     Keyword = FD+NO 


 Occupations of CAS natural orbitals:

 Symmetry  1 ( irrep A   in C1  )

   1.911612110   1.993753202   0.089438414   0.005196274


 --- MACRO ITERATION  3 ---
 --------------------------

 2-el. integral transformation level 3: Total CPU and WALL times (sec)       0.006       0.006

 Total MCSCF energy       :          -113.299651539974747  (MACRO    3)

 - Nuclear repulsion      :            31.249215315972382
 - Inactive energy        :          -139.249603580646379
 - Active energy          :            -5.273009137168793
 - Embedding energy       :            -0.026254138131947

 Norm of total gradient   :             0.121546546348
 -    of CI gradient      :             0.111429935259
 -    of orbital gradient :             0.048548248756
      Virial theorem: -V/T =      2.002004
@    MULPOP   C       0.05; O      -0.49; H       0.27; H       0.18; 

 Residual norm when dim(red L) =   7
 NEO root     CSF        orbital          total
    1     0.02075782     0.00848447     0.02242483 converged

 (NEONEX) NEO vector is converged.

   --- OUTPUT FROM SIRCNO     Keyword = FD+NO 


 Occupations of CAS natural orbitals:

 Symmetry  1 ( irrep A   in C1  )

   1.923872837   1.980218934   0.076732264   0.019175965


 --- MACRO ITERATION  4 ---
 --------------------------

 2-el. integral transformation level 3: Total CPU and WALL times (sec)       0.006       0.006

 Total MCSCF energy       :          -113.305945152964867  (MACRO    4)

 - Nuclear repulsion      :            31.249215315972382
 - Inactive energy        :          -138.822507468297857
 - Active energy          :            -5.706642469846867
 - Embedding energy       :            -0.026010530792517

 Norm of total gradient   :             0.135317603220
 -    of CI gradient      :             0.124219114249
 -    of orbital gradient :             0.053669967358
      Virial theorem: -V/T =      2.002438
@    MULPOP   C       0.05; O      -0.49; H       0.26; H       0.18; 

 (SIRNEO) iteration (  4,  4)
 Micro iteration termination criterion met, EVAL(ISTATE+1) = -2.12D-03

   --- OUTPUT FROM SIRCNO     Keyword = FD+NO 


 Occupations of CAS natural orbitals:

 Symmetry  1 ( irrep A   in C1  )

   1.925124856   1.984180057   0.075476902   0.015218185


 --- MACRO ITERATION  5 ---
 --------------------------

 2-el. integral transformation level 3: Total CPU and WALL times (sec)       0.005       0.005

 Total MCSCF energy       :          -113.312189765508705  (MACRO    5)

 - Nuclear repulsion      :            31.249215315972382
 - Inactive energy        :          -138.549137444932967
 - Active energy          :            -5.985990318211691
 - Embedding energy       :            -0.026277318336422

 Norm of total gradient   :             0.053613116810
 -    of CI gradient      :             0.031519490245
 -    of orbital gradient :             0.043369205996
      Virial theorem: -V/T =      2.002213
@    MULPOP   C       0.08; O      -0.49; H       0.26; H       0.16; 

 Residual norm when dim(red L) =   9
 NEO root     CSF        orbital          total
    1     0.00606442     0.00144248     0.00623361 converged

 (NEONEX) NEO vector is converged.

   --- OUTPUT FROM SIRCNO     Keyword = FD+NO 


 Occupations of CAS natural orbitals:

 Symmetry  1 ( irrep A   in C1  )

   1.925553537   1.980063801   0.074333658   0.020049003


 --- MACRO ITERATION  6 ---
 --------------------------

 2-el. integral transformation level 3: Total CPU and WALL times (sec)       0.006       0.007

 Total MCSCF energy       :          -113.319756864581095  (MACRO    6)

 - Nuclear repulsion      :            31.249215315972382
 - Inactive energy        :          -138.145682170659967
 - Active energy          :            -6.396517806246061
 - Embedding energy       :            -0.026772203647450

 Norm of total gradient   :             0.030519959683
 -    of CI gradient      :             0.021571872363
 -    of orbital gradient :             0.021589864794
      Virial theorem: -V/T =      2.002034
@    MULPOP   C       0.06; O      -0.49; H       0.26; H       0.17; 

 Residual norm when dim(red L) =  10
 NEO root     CSF        orbital          total
    1     0.00277903     0.00156069     0.00318728 converged

 (NEONEX) NEO vector is converged.

   --- OUTPUT FROM SIRCNO     Keyword = FD+NO 


 Occupations of CAS natural orbitals:

 Symmetry  1 ( irrep A   in C1  )

   1.927380299   1.978447309   0.072497787   0.021674605


 --- MACRO ITERATION  7 ---
 --------------------------

 2-el. integral transformation level 3: Total CPU and WALL times (sec)       0.006       0.006

 Total MCSCF energy       :          -113.322151129885327  (MACRO    7)

 - Nuclear repulsion      :            31.249215315972382
 - Inactive energy        :          -138.039489905228208
 - Active energy          :            -6.504969607383117
 - Embedding energy       :            -0.026906933246376

 Norm of total gradient   :             0.039299766893
 -    of CI gradient      :             0.032247974766
 -    of orbital gradient :             0.022461963435
      Virial theorem: -V/T =      2.001911
@    MULPOP   C       0.07; O      -0.50; H       0.26; H       0.17; 

 Residual norm when dim(red L) =   7
 NEO root     CSF        orbital          total
    1     0.00454057     0.00300099     0.00544268 converged

 (NEONEX) NEO vector is converged.

   --- OUTPUT FROM SIRCNO     Keyword = FD+NO 


 Occupations of CAS natural orbitals:

 Symmetry  1 ( irrep A   in C1  )

   1.927184775   1.979762789   0.072777747   0.020274689


 --- MACRO ITERATION  8 ---
 --------------------------

 2-el. integral transformation level 3: Total CPU and WALL times (sec)       0.006       0.006

 Total MCSCF energy       :          -113.322685366031152  (MACRO    8)

 - Nuclear repulsion      :            31.249215315972382
 - Inactive energy        :          -137.993769614748260
 - Active energy          :            -6.551366460908080
 - Embedding energy       :            -0.026764606347190

 Norm of total gradient   :             0.005833985110
 -    of CI gradient      :             0.004831828109
 -    of orbital gradient :             0.003269375992
      Virial theorem: -V/T =      2.001963
@    MULPOP   C       0.06; O      -0.49; H       0.26; H       0.17; 

 Residual norm when dim(red L) =  10
 NEO root     CSF        orbital          total
    1     0.00015159     0.00004589     0.00015838 converged

 (NEONEX) NEO vector is converged.

   --- OUTPUT FROM SIRCNO     Keyword = FD+NO 


 Occupations of CAS natural orbitals:

 Symmetry  1 ( irrep A   in C1  )

   1.926326725   1.979889012   0.073638169   0.020146093


 --- MACRO ITERATION  9 ---
 --------------------------

 2-el. integral transformation level 3: Total CPU and WALL times (sec)       0.006       0.006

 Total MCSCF energy       :          -113.322692043903672  (MACRO    9)

 - Nuclear repulsion      :            31.249215315972382
 - Inactive energy        :          -137.999085180686592
 - Active energy          :            -6.546057124924038
 - Embedding energy       :            -0.026765054265416

 Norm of total gradient   :             0.000169074918
 -    of CI gradient      :             0.000159580227
 -    of orbital gradient :             0.000055861246
      Virial theorem: -V/T =      2.001962
@    MULPOP   C       0.06; O      -0.49; H       0.26; H       0.17; 

 Residual norm when dim(red L) =   9
 NEO root     CSF        orbital          total
    1     0.00000271     0.00000475     0.00000547 converged

 (NEONEX) NEO vector is converged.

   --- OUTPUT FROM SIRCNO     Keyword = FD+NO 


 Occupations of CAS natural orbitals:

 Symmetry  1 ( irrep A   in C1  )

   1.926360228   1.979892977   0.073603966   0.020142829


 --- MACRO ITERATION 10 ---
 --------------------------

 2-el. integral transformation level 3: Total CPU and WALL times (sec)       0.006       0.006

 Total MCSCF energy       :          -113.322692050230145  (MACRO   10)

 - Nuclear repulsion      :            31.249215315972382
 - Inactive energy        :          -137.999083477962813
 - Active energy          :            -6.546055688902797
 - Embedding energy       :            -0.026768199336915

 Norm of total gradient   :             0.000005469666
 -    of CI gradient      :             0.000002708581
 -    of orbital gradient :             0.000004751930
      Virial theorem: -V/T =      2.001962
@    MULPOP   C       0.06; O      -0.49; H       0.26; H       0.17; 

 (SIRSTP) Energy difference;
 actual, predicted and ratio:  -0.000000006326474  -0.000000006291340    1.005584
 Close to convergence, ratio set to one.

 *** Optimization control: MCSCF converged ***
     Number of macro iterations used           10
     Number of micro iterations used           50
     Total number of CPU seconds used         0.44
     Total WALL time used (seconds)           0.44

    .--------------------------------------------------.
    | Final results from polarizable embedding library |
    `--------------------------------------------------´

        Polarizable embedding energy contributions:
       ---------------------------------------------

       Electrostatic contributions:
            Electronic                -0.214367371689
            Nuclear                    0.196501001970
            Multipole                  0.000000000000
            Total                     -0.017866369719

       Polarization contributions:
            Electronic                -0.062091971928
            Nuclear                    0.058587831099
            Multipole                 -0.005397688799
            Total                     -0.008901829628

       Total PE energy:               -0.026768199346
            (excl. multipole-multipole interaction energy)


                           +---------------------------+
                           ! Writing FOCKMAT in siropt !
                           +---------------------------+


 CPU and wall time for MCSCF :       0.447       0.450


                     .----------------------------------------.
                     | --- SIRIUS OPTIMIZATION STATISTICS --- |
                     `----------------------------------------'


 
     Date and time (Linux)  : Wed Jan  5 08:58:58 2022
     Host name              : foeroyar                                


  ITER ITMIC     EMCSCF           GRDNRM        RATIO      STPLNG
 ---------------------------------------------------------------------
    1    2   -112.861663729167   2.4935890113  0.000000   0.3734502065
    2    2   -113.228746190091   0.5854643171  0.872797   0.0681654963
    3    2   -113.247088338370   0.0453798035  1.013256   0.0082881605
    4    3   -113.247236056486   0.0058168750  1.000661   0.0012911434
    5    4   -113.247238748813   0.0001936382  1.000032   0.0000742501
    6    0   -113.247238753714   0.0000084183  1.000000   0.0000000000
    1    4   -113.275965923877   0.1939599533  0.000000   0.7439939361
    2    2   -113.287224296235   0.1561422857  0.508218   0.6981437812
    3    5   -113.299651539975   0.1215465463  0.739574   0.7062228338
    4    4   -113.305945152965   0.1353176032  0.451200   0.6989165854
    5    7   -113.312189765509   0.0536131168  0.796451   0.7242766785
    6    8   -113.319756864581   0.0305199597  0.784044   0.7556589306
    7    5   -113.322151129885   0.0392997669  0.623954   0.1544356950
    8    8   -113.322685366031   0.0058339851  1.023747   0.0118896141
    9    7   -113.322692043904   0.0001690749  1.002238   0.0001466367
   10    0   -113.322692050230   0.0000054697  1.000000   0.0000000000


  ITER  INDGCM  GCIMAX      GCINRM     INDGOM  GOBMAX      GOBNRM      GRDNRM
 ------------------------------------------------------------------------------
    1      0    0.000000    0.000000     76   -0.913290    2.493589    2.493589
    2      0    0.000000    0.000000     78   -0.240546    0.585464    0.585464
    3      0    0.000000    0.000000     32   -0.016168    0.045380    0.045380
    4      0    0.000000    0.000000     78   -0.002328    0.005817    0.005817
    5      0    0.000000    0.000000     65    0.000066    0.000194    0.000194
    6      0    0.000000    0.000000     36    0.000003    0.000008    0.000008
    1     10   -0.039594    0.046706    105    0.074353    0.188253    0.193960
    2      3   -0.092868    0.137836     95    0.028504    0.073360    0.156142
    3     19   -0.073773    0.111430     95    0.020805    0.048548    0.121547
    4      4    0.102254    0.124219     24   -0.031143    0.053670    0.135318
    5     20    0.020193    0.031519    117   -0.015626    0.043369    0.053613
    6     20    0.014288    0.021572    119    0.011106    0.021590    0.030520
    7      4    0.019143    0.032248     95   -0.009556    0.022462    0.039300
    8      6    0.002471    0.004832     24   -0.001047    0.003269    0.005834
    9      4    0.000091    0.000160     60    0.000028    0.000056    0.000169
   10      3   -0.000002    0.000003     12   -0.000001    0.000005    0.000005


  ITER ITMIC NCLIN NOLIN   TIMMAC    TIMITR    TIMMIC    TIMLIN    TIMMIC/ITMIC
 ------------------------------------------------------------------------------

    1     2     0     2      0.03      0.00      0.02      0.01      0.01
    2     2     0     2      0.01      0.00      0.01      0.01      0.01
    3     2     0     2      0.01      0.00      0.01      0.01      0.01
    4     3     0     3      0.03      0.00      0.03      0.03      0.01
    5     4     0     4      0.04      0.00      0.04      0.04      0.01
    6     0     0     0      0.00      0.00      0.00      0.00
    1     4     1     3      0.03      0.01      0.02      0.02      0.01
    2     2     1     2      0.03      0.01      0.02      0.02      0.01
    3     5     3     3      0.04      0.01      0.03      0.03      0.01
    4     4     2     3      0.04      0.01      0.03      0.03      0.01
    5     7     3     5      0.06      0.01      0.05      0.05      0.01
    6     8     4     5      0.07      0.01      0.06      0.05      0.01
    7     5     2     4      0.04      0.01      0.04      0.03      0.01
    8     8     3     6      0.06      0.01      0.05      0.05      0.01
    9     7     4     4      0.05      0.01      0.04      0.04      0.01
   10     0     0     0      0.01      0.01      0.00      0.00


 ITER         EMY                 EACTIV              EMCSCF

    1   -144.078112564775      0.000000000000   -112.861663729167
    2   -144.454198311224      0.000000000000   -113.228746190091
    3   -144.467591508694      0.000000000000   -113.247088338370
    4   -144.467133594999      0.000000000000   -113.247236056486
    5   -144.467149787458      0.000000000000   -113.247238748813
    6   -144.467151140727      0.000000000000   -113.247238753714
    1   -139.483627937082     -5.017278787822   -113.275965923877
    2   -139.688213997186     -4.822217977260   -113.287224296235
    3   -139.249603580646     -5.273009137169   -113.299651539975
    4   -138.822507468298     -5.706642469847   -113.305945152965
    5   -138.549137444933     -5.985990318212   -113.312189765509
    6   -138.145682170660     -6.396517806246   -113.319756864581
    7   -138.039489905228     -6.504969607383   -113.322151129885
    8   -137.993769614748     -6.551366460908   -113.322685366031
    9   -137.999085180687     -6.546057124924   -113.322692043904
   10   -137.999083477963     -6.546055688903   -113.322692050230


 ITER         DEPRED              DEACT               RATIO

    1      0.000000000000      0.000000000000      0.000000000000
    2     -0.420581575218     -0.367082460924      0.872797294397
    3     -0.018102179449     -0.018342148279      1.013256350153
    4     -0.000147620542     -0.000147718116      1.000660982776
    5     -0.000002692239     -0.000002692327      1.000032431316
    6     -0.000000004897     -0.000000004902      1.000000000000
    1      0.000000000000      0.000000000000      0.000000000000
    2     -0.022152645347     -0.011258372358      0.508217965930
    3     -0.016803249840     -0.012427243740      0.739573824027
    4     -0.013948599462     -0.006293612990      0.451200352201
    5     -0.007840548020     -0.006244612544      0.796451029735
    6     -0.009651375643     -0.007567099072      0.784043576003
    7     -0.003837249171     -0.002394265304      0.623953566046
    8     -0.000521843778     -0.000534236146      1.023747274843
    9     -0.000006662959     -0.000006677873      1.002238206338
   10     -0.000000006291     -0.000000006326      1.000000000000


 ITER    BETA           GAMMA             STPLNG              RTRUST

    1      0.20000000  1.00000000      0.373450206519      0.700000000000
    2      0.20000000  1.00000000      0.068165496260      0.700000000000
    3      0.20000000  1.00000000      0.008288160512      0.700000000000
    4      0.20000000  1.00000000      0.001291143357      0.700000000000
    5      0.20000000  1.00000000      0.000074250110      0.700000000000
    6      0.00000000  0.00000000      0.000000000000      0.700000000000
    1      1.27380777  1.00000000      0.743993936118      0.700000000000
    2      1.52714354  1.00000000      0.698143781171      0.700000000000
    3      1.18340478  1.00000000      0.706222833751      0.700000000000
    4      1.57123911  1.00000000      0.698916585404      0.700000000000
    5      1.56039946  1.00000000      0.724276678473      0.700000000000
    6      0.20000000  1.00000000      0.755658930598      0.700000000000
    7      0.20000000  1.00000000      0.154435694977      0.700000000000
    8      0.20000000  1.00000000      0.011889614060      0.700000000000
    9      0.20000000  1.00000000      0.000146636663      0.700000000000
   10      0.00000000  0.00000000      0.000000000000      0.700000000000


 Reduced L root no.  1
 ITER         EVAL              EVEC(1)           EVEC(2)           EVEC(3)
 ----------------------------------------------------------------------------
    1   -0.033459866729    0.997222315176   -0.066905423497   -0.032731000914
    2   -0.001447905246    0.999907082255   -0.013020182301   -0.004037537618
    3   -0.000011809611    0.999998626131   -0.001524689260   -0.000650430086
    4   -0.000000215379    0.999999966659   -0.000208604072   -0.000148425869
    5   -0.000000000392    0.999999999890   -0.000013869089   -0.000004631044
    6    0.000000000000    0.000000000000    0.000000000000    0.000000000000
    1   -0.037873368631    0.725830607729   -0.589097230777   -0.151098773355
    2   -0.036680692948   -0.684112089409    0.059852035666    0.672232215701
    3   -0.023002146858    0.767309488779   -0.054308031729   -0.612344471948
    4   -0.017549391303   -0.673287482892    0.011235295544    0.387382578960
    5   -0.020638468446   -0.662663932876    0.024757787880    0.627151433324
    6   -0.000300124837    0.988771579340   -0.000726279963   -0.134717380339
    7   -0.000041707712    0.999523333356   -0.001051518118   -0.025181198426
    8   -0.000000533034    0.999997172754   -0.000349658492   -0.001858352726
    9   -0.000000000503    0.999999999570   -0.000019737317   -0.000013942126
   10    0.000000000000    0.000000000000    0.000000000000    0.000000000000


                       .-----------------------------------.
                       | --- Final results from SIRIUS --- |
                       `-----------------------------------'


@    Spin multiplicity:           1
@    Spatial symmetry:            1 ( irrep  A   in C1  )
@    Total charge of molecule:    0

@    This was an MC-srDFT calculation.
@    State number:                1

@    Final MCSCF energy:         -113.322692050230                 
@    Nuclear repulsion:            31.249215315972
@    Electronic energy:          -144.545139166866
@    Embedding energy:             -0.026768199337

@    Final gradient norm:           0.000005469666

 
     Date and time (Linux)  : Wed Jan  5 08:58:58 2022
     Host name              : foeroyar                                

 Occupancies of natural orbitals
 -------------------------------

 Symmetry 1  ( A  ) -- Total occupation in this symmetry is  16.000000000

   2.000000000   2.000000000   2.000000000   2.000000000   2.000000000
   2.000000000   1.926360228   1.979892977   0.073603966   0.020142829

File label for MO orbitals:   5Jan22   (CNOORB)

 (Only coefficients > 0.0100 are printed.)

 Molecular orbitals for symmetry species 1  (A  )
 ------------------------------------------------

    Orbital         1        2        3        4        5        6        7
   1 C   :1s     0.0000  -0.9860  -0.0712   0.1731   0.0020  -0.0017  -0.0001
   2 C   :1s    -0.0006  -0.0940   0.0610  -0.1951  -0.0044   0.0004   0.0006
   3 C   :1s    -0.0182   0.0442   0.1106  -0.5202   0.0098   0.0224  -0.0006
   4 C   :2px    0.0002   0.0003   0.0039  -0.0216   0.3538   0.1860   0.0027
   5 C   :2py   -0.0031  -0.0030  -0.0551   0.1801   0.0184   0.0117  -0.0101
   6 C   :2pz    0.0001   0.0001   0.0019  -0.0063   0.0024   0.0014  -0.3080
   7 C   :2px    0.0010   0.0003  -0.0015  -0.0246   0.2897   0.0710   0.0024
   8 C   :2py   -0.0137  -0.0072  -0.0721   0.1333   0.0140  -0.0117  -0.0102
   9 C   :2pz    0.0004   0.0002   0.0026  -0.0055   0.0021   0.0011  -0.3048
  10 O   :1s    -0.9834   0.0002  -0.2299  -0.0837  -0.0017  -0.0004  -0.0001
  11 O   :1s    -0.0982  -0.0008   0.2165   0.0803  -0.0005   0.0028   0.0000
  12 O   :1s     0.0475  -0.0002   0.7670   0.3280   0.0088   0.0025   0.0006
  13 O   :2px   -0.0004  -0.0001  -0.0146  -0.0068   0.2673  -0.4500   0.0023
  14 O   :2py    0.0050   0.0009   0.1402   0.0653   0.0171  -0.0271  -0.0127
  15 O   :2pz   -0.0002  -0.0000  -0.0044  -0.0023   0.0013  -0.0022  -0.3969
  16 O   :2px    0.0007   0.0002  -0.0071  -0.0001   0.2444  -0.5553   0.0026
  17 O   :2py   -0.0124  -0.0030   0.1475   0.0458   0.0181  -0.0407  -0.0136
  18 O   :2pz    0.0004   0.0001  -0.0047  -0.0013   0.0008  -0.0022  -0.4230
  19 H   :1s     0.0008   0.0020   0.0580  -0.1805   0.1641   0.1727   0.0006
  20 H   :1s    -0.0004  -0.0126   0.0349  -0.0560   0.0865   0.2116   0.0007
  21 H   :1s     0.0009   0.0020   0.0533  -0.1716  -0.1757  -0.1803   0.0002
  22 H   :1s    -0.0001  -0.0126   0.0278  -0.0707  -0.1145  -0.2602  -0.0003

    Orbital         8        9       10       11       12       13       14
   1 C   :1s     0.1017   0.0001   0.1217  -0.1264   0.0056   0.0267   0.0001
   2 C   :1s    -0.1351  -0.0007  -0.3874   0.0472  -0.0049   0.2126   0.0008
   3 C   :1s    -0.0462   0.0006  -0.5132   1.6361  -0.0536  -0.9380  -0.0019
   4 C   :2px    0.0209  -0.0044   0.0380   0.0179   0.3895  -0.0274   0.0091
   5 C   :2py   -0.3499   0.0169  -0.6936  -0.2251   0.0233   0.6067  -0.0319
   6 C   :2pz    0.0113   0.5197   0.0225   0.0072   0.0025  -0.0196  -1.0021
   7 C   :2px   -0.0021  -0.0032   0.0086   0.0872   1.4680   0.1090  -0.0105
   8 C   :2py   -0.0377   0.0143  -0.2370  -0.9099   0.0977  -1.7489   0.0367
   9 C   :2pz    0.0014   0.4391   0.0076   0.0298   0.0094   0.0568   1.1301
  10 O   :1s     0.0518   0.0000  -0.1005  -0.0172  -0.0008  -0.0640  -0.0000
  11 O   :1s    -0.0554   0.0001   0.1945  -0.0041   0.0013  -0.0370   0.0000
  12 O   :1s    -0.0748  -0.0005   0.5387   0.2699   0.0030   1.2829   0.0000
  13 O   :2px   -0.0309   0.0036   0.0464   0.0012  -0.1256  -0.0090   0.0004
  14 O   :2py    0.4237  -0.0175  -0.7070   0.0031  -0.0093   0.1419  -0.0009
  15 O   :2pz   -0.0136  -0.5501   0.0228  -0.0002  -0.0007  -0.0046  -0.0262
  16 O   :2px   -0.0265   0.0024   0.0093  -0.0023  -0.3576   0.0278   0.0021
  17 O   :2py    0.4240  -0.0093  -0.2163  -0.0320  -0.0227  -0.4396  -0.0079
  18 O   :2pz   -0.0137  -0.2998   0.0070   0.0009  -0.0021   0.0142  -0.2446
  19 H   :1s     0.0420  -0.0005   0.0492  -0.0528   0.0171  -0.1148   0.0009
  20 H   :1s     0.0746  -0.0005   0.1028  -1.3860  -1.5131  -0.0423   0.0001
  21 H   :1s     0.0373  -0.0002   0.0434  -0.0488  -0.0126  -0.1129   0.0003
  22 H   :1s     0.0700   0.0004   0.0990  -1.2629   1.5890  -0.0083   0.0004

    Orbital        15       16       17       18       19       20
   1 C   :1s     0.0022  -0.0555   0.0013   0.0349   0.0000  -0.0115
   2 C   :1s     0.0259  -0.4224   0.0147  -1.3722  -0.0005   0.9456
   3 C   :1s    -0.0343   0.6635  -0.0243   2.8554   0.0008  -0.3425
   4 C   :2px    0.7770   0.0686   0.7947  -0.0303  -0.0013  -0.0232
   5 C   :2py    0.0547  -0.1543   0.0389   0.6385   0.0048   0.3660
   6 C   :2pz    0.0059   0.0045   0.0055  -0.0211   0.1412  -0.0117
   7 C   :2px   -1.9497  -0.1227  -0.9628   0.0181  -0.0017   0.0034
   8 C   :2py   -0.0778  -0.0440  -0.0434  -0.4802   0.0114   0.2714
   9 C   :2pz   -0.0151   0.0009  -0.0072   0.0154   0.3620  -0.0086
  10 O   :1s     0.0006   0.0196  -0.0012   0.0462   0.0000   0.0770
  11 O   :1s     0.0003  -0.0512   0.0035  -0.0539  -0.0002  -0.1840
  12 O   :1s    -0.0113  -0.1607   0.0038  -0.5155   0.0000  -0.2872
  13 O   :2px    0.2349   0.0111  -0.1245   0.0158  -0.0076   0.0528
  14 O   :2py    0.0159  -0.0289  -0.0078  -0.2728   0.0299  -0.7670
  15 O   :2pz    0.0016   0.0009  -0.0009   0.0085   0.9473   0.0247
  16 O   :2px    0.2719   0.0119   0.1332  -0.0410   0.0087  -0.0932
  17 O   :2py    0.0189   0.0820   0.0031   0.6750  -0.0367   1.3393
  18 O   :2pz    0.0016  -0.0026   0.0013  -0.0214  -1.1639  -0.0431
  19 H   :1s     0.5198  -0.8808  -0.7649   0.1827  -0.0005  -0.1064
  20 H   :1s     0.5363   0.4857   1.1440  -0.9849  -0.0007   0.2557
  21 H   :1s    -0.4312  -0.8886   0.8076   0.1851   0.0004  -0.0990
  22 H   :1s    -0.5666   0.3752  -1.1627  -0.9879   0.0002   0.2674

 Printout of CI-coefficients abs greater than 0.05000 for root  1
 *** NOTE: this root is the reference state ***

 Printout of coefficients in interval  3.1623E-01 to  1.0000E+00
 ===============================================================

  Coefficient of CSF no.         1 is     -0.97651801   -9.76518015E-01
  Orbital          1   2
  Spin coupling    2   2

 Printout of coefficients in interval  1.0000E-01 to  3.1623E-01
 ===============================================================

  Coefficient of CSF no.         3 is      0.17513702    1.75137023E-01
  Orbital          2   3
  Spin coupling    2   2

 Printout of coefficients in interval  5.0000E-02 to  1.0000E-01
 ===============================================================

  Coefficient of CSF no.         4 is      0.06288622    6.28862225E-02
  Orbital          1   4
  Spin coupling    2   2

  Coefficient of CSF no.        19 is      0.06964314    6.96431384E-02
  Orbital          1   2   3   4
  Spin coupling    1   1  -1  -1

  Coefficient of CSF no.        20 is      0.07846537    7.84653660E-02
  Orbital          1   2   3   4
  Spin coupling    1  -1   1  -1

 Norm of printed CI vector ..      0.99922207

 Magnitude of CI coefficients
 ============================
 ( Ranges are relative to norm of vector :  1.00E+00 )

  10- 1 to 10- 0         2    0.98426041E+00      0.9842604103
  10- 2 to 10- 1         6    0.15671101E-01      0.9999315115
  10- 3 to 10- 2         4    0.68488369E-04      0.9999999999
  10- 6 to 10- 5         5    0.10686402E-09      1.0000000000
  10- 7 to 10- 6         3    0.20498594E-12      1.0000000000
  Number of coefficients less than 10^-11 times norm is            0

  Total CPU  time used in SIRIUS :   0.60 seconds
  Total wall time used in SIRIUS :   0.61 seconds

 
     Date and time (Linux)  : Wed Jan  5 08:58:58 2022
     Host name              : foeroyar                                

 NOTE:    1 warnings have been issued.
 Check output, result, and error files for "WARNING".


                     .---------------------------------------.
                     | End of Wave Function Section (SIRIUS) |
                     `---------------------------------------'



        *****************************************************************
        ******** Output from **PROPE input processing for ABACUS ********
        *****************************************************************

     Environment effects are included through the PE library


 The following molecular properties will be calculated in this run:
 ------------------------------------------------------------------

 Default print level:        0

      Electronic excitation energies 
      Natural orbital connection is used
      for perturbation dependent basis sets.
     Environment effects are included through the PE library


 Changes of defaults for .EXCITA:
 --------------------------------

 Number of excitation energies:    2
 Print level          :    0
 Integral print level :    0
 Convergence threshold: 1.00E-04
 Maximum iterations   :   60
 Dipole strength

 INFO SIR_INTOPEN, old integral transformation not found as expected, ICASE = 3
 - ICASE = 1: MO integral file MOTWOINT does not exist
 - ICASE = 2: no MO integrals on MOTWOINT
 - ICASE = 3: transformation level on MOTWOINT not sufficient
 ITRLVL requested & ITRLVL on MOTWOINT :    4    3

 NSETUP: MO transformation level too low or no MO integral file found.
 NSETUP: generating MO 2-el. integral file. Transformation level: 4


 Old direct access AO file found, SORTA skipped.

 2-el. integral transformation level 4: Total CPU and WALL times (sec)       0.008       0.007

 Sorting integrals to Dirac format: Total CPU and WALL times (sec)       0.001       0.001

 Center of mass dipole origin  :   -3.067740   -0.312997    0.018175

 Center of mass gauge origin   :   -3.067740   -0.312997    0.018175


                 .------------------------------------------------.
                 | Starting in Static Property Section (ABACUS) - |
                 `------------------------------------------------'


 
     Date and time (Linux)  : Wed Jan  5 08:58:58 2022
     Host name              : foeroyar                                


                  **********************************************
                  *** ABACUS - Excitation energies (.EXCITA) ***
                  **********************************************

  Time used in EXCITA     is       0.14 seconds


   ***************************************************************************
   ************************ FINAL RESULTS from ABACUS ************************
   ***************************************************************************


 
     Date and time (Linux)  : Wed Jan  5 08:58:58 2022
     Host name              : foeroyar                                


                             Molecular geometry (au)
                             -----------------------

 C         -3.0015786160           -1.4563174382            0.0550080378
 O         -3.1314330364            0.8240509816           -0.0184248297
 H         -1.1728925345           -2.4468589606            0.1025195320
 H         -4.7395143797           -2.6116033945            0.0761219478





                        Molecular wave function and energy
                        ----------------------------------

     Spatial symmetry   1 ( A   )
     Spin multiplicity  1
     2 * M_S            0
     State number       1
     Total charge       0

     Total energy       -113.3226920502 au (Hartrees)
                         -3083.66731309 eV
                           -297528.6821 kJ/mol
                            -71111.0617 kcal/mol


                   Scalar Breit-Pauli relativistic corrections
                   -------------------------------------------

     Darwin correction:                          0.2036644704 au
     Mass-velocity correction:                  -0.2626525362 au

     Total relativistic correction:             -0.0589880657 au ( 0.0521%)
     Non-relativistic + relativistic energy:  -113.3816801160 au



      (Note that these corrections are NOT included in the results below.)


                                  Dipole moment
                                  -------------

                 au               Debye          C m (/(10**-30)
              1.132243           2.877874           9.599556


                             Dipole moment components
                             ------------------------

                 au               Debye          C m (/(10**-30)

      x      0.14789158         0.37590287         1.25387700
      y     -1.12205687        -2.85198392        -9.51319435
      z      0.03302378         0.08393807         0.27998728


   Units:   1 a.u. =   2.54175 Debye 
            1 a.u. =   8.47835 (10**-30) C m (SI)




@               Singlet electronic excitation energies
                --------------------------------------

               ========================================
                 Sym.   Mode   Frequency    Frequency
                ex. st.  No.      (au)         (eV)
               ----------------------------------------
                   1      1     0.154770     4.211516
                   1      2     0.358737     9.761721
               ========================================


@               Electric transition dipole moments (au)
                ---------------------------------------

@        Mode    Frequency       Velocity/Frequency              Length
@         No.      (au)          x       y       z         x       y       z
@==============================================================================
@           1     0.154770    -0.0013  0.0024  0.0622    0.0008 -0.0004  0.0128
@           2     0.358737    -0.0021  0.0082  0.2811   -0.0007  0.0034  0.1466
@------------------------------------------------------------------------------


@                              Oscillator strengths
                               --------------------

@  Oscillator strengths are dimensionless.

@  Sym.   Mode        Frequency     Oscillator-strength
@ ex. st.  No.           (eV)        velocity   length
@ -------------------------------------------------------
@  1        1         4.211516        0.0004   0.0000
@  1        2         9.761721        0.0189   0.0051


   Interatomic separations (in Angstrom):
   --------------------------------------

            C           O           H           H     
            ------      ------      ------      ------
 C     :    0.000000
 O     :    1.209298    0.000000
 H     :    1.100831    2.018474    0.000000
 H     :    1.104391    2.007988    1.889439    0.000000


  Max    interatomic separation is    2.0185 Angstrom (    3.8144 Bohr)
  between atoms    3 and    2, "H     " and "O     ".

  Min HX interatomic separation is    1.1008 Angstrom (    2.0803 Bohr)

  Min YX interatomic separation is    1.2093 Angstrom (    2.2852 Bohr)


  Bond distances (Angstrom):
  --------------------------

                  atom 1     atom 2       distance
                  ------     ------       --------
  bond distance:  O          C            1.209298
  bond distance:  H          C            1.100831
  bond distance:  H          C            1.104391


  Bond angles (degrees):
  ----------------------

                  atom 1     atom 2     atom 3         angle
                  ------     ------     ------         -----
  bond angle:     O          C          H            121.724
  bond angle:     O          C          H            120.357
  bond angle:     H          C          H            117.919


  Total CPU  time used in ABACUS:   0.14 seconds
  Total wall time used in ABACUS:   0.14 seconds


                   .-------------------------------------------.
                   | End of Static Property Section (ABACUS) - |
                   `-------------------------------------------'

  Total CPU  time used in DALTON:   0.77 seconds
  Total wall time used in DALTON:   0.77 seconds

 
     Date and time (Linux)  : Wed Jan  5 08:58:58 2022
     Host name              : foeroyar                                
