

     ************************************************************************
     *************** Dalton - An Electronic Structure Program ***************
     ************************************************************************

    This is output from DALTON release Dalton2021.alpha (2021)
         ( Web site: http://daltonprogram.org )

   ----------------------------------------------------------------------------

    NOTE:
     
    Dalton is an experimental code for the evaluation of molecular
    properties using (MC)SCF, DFT, CI, and CC wave functions.
    The authors accept no responsibility for the performance of
    the code or for the correctness of the results.
     
    The code (in whole or part) is provided under a licence and
    is not to be reproduced for further distribution without
    the written permission of the authors or their representatives.
     
    See the home page "http://daltonprogram.org" for further information.
     
    If results obtained with this code are published,
    the appropriate citations would be both of:
     
       K. Aidas, C. Angeli, K. L. Bak, V. Bakken,
       R. Bast, L. Boman, O. Christiansen, R. Cimiraglia,
       S. Coriani, P. Dahle, E. K. Dalskov, U. Ekstroem,
       T. Enevoldsen, J. J. Eriksen, P. Ettenhuber, B. Fernandez,
       L. Ferrighi, H. Fliegl, L. Frediani, K. Hald, A. Halkier,
       C. Haettig, H. Heiberg, T. Helgaker, A. C. Hennum,
       H. Hettema, E. Hjertenaes, S. Hoest, I.-M. Hoeyvik,
       M. F. Iozzi, B. Jansik, H. J. Aa. Jensen, D. Jonsson,
       P. Joergensen, J. Kauczor, S. Kirpekar,
       T. Kjaergaard, W. Klopper, S. Knecht, R. Kobayashi, H. Koch,
       J. Kongsted, A. Krapp, K. Kristensen, A. Ligabue,
       O. B. Lutnaes, J. I. Melo, K. V. Mikkelsen, R. H. Myhre,
       C. Neiss, C. B. Nielsen, P. Norman, J. Olsen,
       J. M. H. Olsen, A. Osted, M. J. Packer, F. Pawlowski,
       T. B. Pedersen, P. F. Provasi, S. Reine, Z. Rinkevicius,
       T. A. Ruden, K. Ruud, V. Rybkin, P. Salek, C. C. M. Samson,
       A. Sanchez de Meras, T. Saue, S. P. A. Sauer,
       B. Schimmelpfennig, K. Sneskov, A. H. Steindal,
       K. O. Sylvester-Hvid, P. R. Taylor, A. M. Teale,
       E. I. Tellgren, D. P. Tew, A. J. Thorvaldsen, L. Thoegersen,
       O. Vahtras, M. A. Watson, D. J. D. Wilson, M. Ziolkowski
       and H. Agren,
       "The Dalton quantum chemistry program system",
       WIREs Comput. Mol. Sci. 2014, 4:269–284 (doi: 10.1002/wcms.1172)
     
    and
     
       Dalton, a molecular electronic structure program,
       Release Dalton2021.alpha (2021), see http://daltonprogram.org
   ----------------------------------------------------------------------------

    Authors in alphabetical order (Major contribution(s) in parenthesis):

  Kestutis Aidas,           Vilnius University,           Lithuania   (QM/MM)
  Celestino Angeli,         University of Ferrara,        Italy       (NEVPT2)
  Juan J. Aucar,            Northeast National University,Argentina   (LRESC, Relativistic Effects on EFG)
  Keld L. Bak,              UNI-C,                        Denmark     (AOSOPPA, non-adiabatic coupling, magnetic properties)
  Vebjoern Bakken,          University of Oslo,           Norway      (DALTON; geometry optimizer, symmetry detection)
  Radovan Bast,             UiT The Arctic U. of Norway,  Norway      (DALTON installation and execution frameworks)
  Pablo Baudin,             University of Valencia,       Spain       (Cholesky excitation energies)
  Linus Boman,              NTNU,                         Norway      (Cholesky decomposition and subsystems)
  Bruno N. Cabral Tenorio,  Technical Univ. of Denmark,   Denmark     (Lanczos-based CC methods)
  Ove Christiansen,         Aarhus University,            Denmark     (CC module)
  Renzo Cimiraglia,         University of Ferrara,        Italy       (NEVPT2)
  Sonia Coriani,            Technical Univ. of Denmark,   Denmark     (CC and RESPONS modules)
  Janusz Cukras,            University of Warsaw,         Poland      (MChD in RESPONS)
  Paal Dahle,               University of Oslo,           Norway      (Parallelization)
  Erik K. Dalskov,          UNI-C,                        Denmark     (SOPPA)
  Thomas Enevoldsen,        Univ. of Southern Denmark,    Denmark     (SOPPA)
  Janus J. Eriksen,         Aarhus University,            Denmark     (Polarizable embedding, TDA)
  Rasmus Faber,             Technical Univ. of Denmark,   Denmark     (Vib.avg. NMR w. SOPPA, parallel AO-SOPPA, CVS-CC and EOMCC)
  Tobias Fahleson,          KTH Stockholm,                Sweden      (Damped cubic response)
  Berta Fernandez,          U. of Santiago de Compostela, Spain       (Doublet spin, ESR in RESPONS)
  Lara Ferrighi,            Aarhus University,            Denmark     (PCM Cubic response)
  Heike Fliegl,             University of Oslo,           Norway      (CCSD(R12))
  Luca Frediani,            UiT The Arctic U. of Norway,  Norway      (PCM)
  Emmanuel Fromager,        Univ. Strasbourg,             France      (MC-srDFT)
  Bin Gao,                  UiT The Arctic U. of Norway,  Norway      (Gen1Int library)
  Andre S. P. Gomes,        CNRS/Universite de Lille,     France      (Frozen density embedding)
  Christof Haettig,         Ruhr-University Bochum,       Germany     (CC module)
  Kasper Hald,              Aarhus University,            Denmark     (CC module)
  Asger Halkier,            Aarhus University,            Denmark     (CC module)
  Frederik Beyer Hansen,    University of Copenhagen,     Denmark     (Parallel AO-SOPPA)
  Erik D. Hedegaard,        Univ. of Southern Denmark,    Denmark     (Polarizable embedding, QM/MM, and MC-srDFT)
  Hanne Heiberg,            University of Oslo,           Norway      (Geometry analysis, selected one-electron integrals)
  Trygve Helgaker,          University of Oslo,           Norway      (DALTON; ABACUS, ERI, DFT modules, London, and much more)
  Alf Christian Hennum,     University of Oslo,           Norway      (Parity violation)
  Hinne Hettema,            University of Auckland,       New Zealand (Quadratic response in RESPONS; SIRIUS supersymmetry)
  Eirik Hjertenaes,         NTNU,                         Norway      (Cholesky decomposition)
  Pi A. B. Haase,           University of Copenhagen,     Denmark     (Triplet AO-SOPPA)
  Maria Francesca Iozzi,    University of Oslo,           Norway      (RPA)
  Christoph Jacob           TU Braunschweig               Germany     (Frozen density embedding)
  Brano Jansik              Technical Univ. of Ostrava    Czech Rep.  (DFT cubic response)
  Hans Joergen Aa. Jensen,  Univ. of Southern Denmark,    Denmark     (DALTON; SIRIUS, RESPONS, ABACUS, MC-srDFT, and much more)
  Dan Jonsson,              UiT The Arctic U. of Norway,  Norway      (Cubic response in RESPONS module)
  Poul Joergensen,          Aarhus University,            Denmark     (RESPONS, ABACUS, and CC modules)
  Maciej Kaminski,          University of Warsaw,         Poland      (CPPh in RESPONS)
  Joanna Kauczor,           Linkoeping University,        Sweden      (Complex polarization propagator (CPP) module)
  Sheela Kirpekar,          Univ. of Southern Denmark,    Denmark     (Mass-velocity & Darwin integrals)
  Erik Kjellgren,           Univ. of Southern Denmark,    Denmark     (MC-srDFT)
  Wim Klopper,              KIT Karlsruhe,                Germany     (R12 code in CC, SIRIUS, and ABACUS modules)
  Stefan Knecht,            ETH Zurich,                   Switzerland (Parallel CI and MCSCF, MC-srDFT)
  Rika Kobayashi,           Australian National Univ.,    Australia   (DIIS in CC, London in MCSCF)
  Henrik Koch,              NTNU,                         Norway      (CC module, Cholesky decomposition)
  Jacob Kongsted,           Univ. of Southern Denmark,    Denmark     (Polarizable embedding, polarizable density embedding, QM/MM)
  Andrea Ligabue,           University of Modena,         Italy       (CTOCD, AOSOPPA)
  Nanna H. List             Univ. of Southern Denmark,    Denmark     (Polarizable embedding)
  Ola B. Lutnaes,           University of Oslo,           Norway      (DFT Hessian)
  Juan I. Melo,             University of Buenos Aires,   Argentina   (LRESC, Relativistic Effects on NMR Shieldings)
  Kurt V. Mikkelsen,        University of Copenhagen,     Denmark     (MC-SCRF and QM/MM)
  Rolf H. Myhre,            NTNU,                         Norway      (Subsystems and CC3)
  Christian Neiss,          Univ. Erlangen-Nuernberg,     Germany     (CCSD(R12))
  Christian B. Nielsen,     University of Copenhagen,     Denmark     (QM/MM)
  Patrick Norman,           KTH Stockholm,                Sweden      (Cubic response and complex frequency response in RESPONS)
  Jeppe Olsen,              Aarhus University,            Denmark     (SIRIUS CI/density modules)
  Jogvan Magnus H. Olsen,   Aarhus University,            Denmark     (Polarizable embedding and polarizable density embedding)
  Anders Osted,             Copenhagen University,        Denmark     (QM/MM)
  Martin J. Packer,         University of Sheffield,      UK          (SOPPA)
  Filip Pawlowski,          Kazimierz Wielki University,  Poland      (CC3)
  Morten N. Pedersen,       Univ. of Southern Denmark,    Denmark     (Polarizable embedding)
  Thomas B. Pedersen,       University of Oslo,           Norway      (Cholesky decomposition)
  Patricio F. Provasi,      University of Northeastern,   Argentina   (Analysis of coupling constants in localized orbitals)
  Peter Reinholdt,          Univ. of Southern Denmark,    Denmark     (Polarizable embedding and polarizable density embedding)
  Zilvinas Rinkevicius,     KTH Stockholm,                Sweden      (open-shell DFT, ESR)
  Elias Rudberg,            KTH Stockholm,                Sweden      (DFT grid and basis info)
  Torgeir A. Ruden,         University of Oslo,           Norway      (Numerical derivatives in ABACUS)
  Kenneth Ruud,             UiT The Arctic U. of Norway,  Norway      (DALTON; ABACUS magnetic properties and much more)
  Pawel Salek,              KTH Stockholm,                Sweden      (DALTON; DFT code)
  Claire C. M. Samson       University of Karlsruhe       Germany     (Boys localization, r12 integrals in ERI)
  Alfredo Sanchez de Meras, University of Valencia,       Spain       (CC module, Cholesky decomposition)
  Trond Saue,               Paul Sabatier University,     France      (direct Fock matrix construction)
  Stephan P. A. Sauer,      University of Copenhagen,     Denmark     (SOPPA(CCSD), SOPPA prop., AOSOPPA, vibrational g-factors)
  Bernd Schimmelpfennig,    Forschungszentrum Karlsruhe,  Germany     (AMFI module)
  Anna K. Schnack-Petersen, University of Copenhagen,     Denmark     (RPA(D) and HRPA(D) properties in AOSOPPA)
  Kristian Sneskov,         Aarhus University,            Denmark     (Polarizable embedding, QM/MM)
  Arnfinn H. Steindal,      UiT The Arctic U. of Norway,  Norway      (parallel QM/MM, polarizable embedding)
  Casper Steinmann,         Aalborg University,           Denmark     (QFIT, polarizable embedding)
  K. O. Sylvester-Hvid,     University of Copenhagen,     Denmark     (MC-SCRF)
  Peter R. Taylor,          VLSCI/Univ. of Melbourne,     Australia   (Symmetry handling ABACUS, integral transformation)
  Andrew M. Teale,          University of Nottingham,     England     (DFT-AC, DFT-D)
  David P. Tew,             University of Bristol,        England     (CCSD(R12))
  Julien Toulouse,          Sorbonne Univ.,               France      (MC-srDFT)
  Olav Vahtras,             KTH Stockholm,                Sweden      (Triplet response, spin-orbit, ESR, TDDFT, open-shell DFT)
  Lucas Visscher,           Vrije Universiteit Amsterdam, Netherlands (Frozen density embedding)
  David J. Wilson,          La Trobe University,          Australia   (DFT Hessian and DFT magnetizabilities)
  Luna Zamok,               University of Copenhagen,     Denmark     (Block Lanczos RPA solver in SOPPA module)
  Hans Agren,               KTH Stockholm,                Sweden      (SIRIUS module, RESPONS, MC-SCRF solvation)
 --------------------------------------------------------------------------------

     Date and time (Linux)  : Tue Nov 23 15:01:22 2021
     Host name              : loke                                    

 * Work memory size             :    64000000 =  488.28 megabytes.

 * Directories for basis set searches:
   1) /home/reinholdt/Programs/dalton/DALTON/test/pemcsrdft
   2) /home/reinholdt/Programs/dalton/build-debug/basis


Compilation information
-----------------------

 Who compiled             | reinholdt
 Host                     | loke
 System                   | Linux-5.14.8-arch1-1
 CMake generator          | Unix Makefiles
 Processor                | x86_64
 64-bit integers          | OFF
 MPI                      | OFF
 Fortran compiler         | /usr/bin/gfortran
 Fortran compiler version | GNU Fortran (GCC) 11.1.0
 C compiler               | /usr/bin/gcc
 C compiler version       | gcc (GCC) 11.1.0
 C++ compiler             | /usr/bin/g++
 C++ compiler version     | g++ (GCC) 11.1.0
 BLAS                     | /opt/intel/oneapi/mkl/latest/lib/intel64/libmkl_gf
                          | _lp64.so;/opt/intel/oneapi/mkl/latest/lib/intel64/
                          | libmkl_sequential.so;/opt/intel/oneapi/mkl/latest/
                          | lib/intel64/libmkl_core.so;/usr/lib/libpthread.so;
                          | /usr/lib/libm.so
 LAPACK                   | /opt/intel/oneapi/mkl/latest/lib/intel64/libmkl_la
                          | pack95_lp64.a;/opt/intel/oneapi/mkl/latest/lib/int
                          | el64/libmkl_gf_lp64.so
 Static linking           | OFF
 Last Git revision        | aa5484f596e049488b81703b98b55cfeeb237aa2
 Git branch               | PE-AO-SOPPA
 Configuration time       | 2021-11-23 13:52:38.948293


   Content of the .dal input file
 ----------------------------------

**DALTON
.RUN PROPERTIES
.PELIB
**WAVE FUNCTIONS
.HFsrDFT
.MCsrDFT
.SRFUN
SRPBEGWS
.ERF
0.4
*CONFIGURATION INPUT
.SYMMETRY
 1
.SPIN MUL
 1
.INACTIVE
 1
.ELECTRONS
 2
.CAS SPACE
 2
**PROPERTIES
.EXCITA
*EXCITA
.NEXCIT
 2
.DIPSTR
**END OF


   Content of the .mol file
 ----------------------------

BASIS
STO-3G
LiH fight me
------------------------
AtomTypes=2 NoSymmetry Angstrom
Atoms=1 Charge=3
Li           -.620668   -1.294822      .054251
Atoms=1 Charge=1
H           -2.508043   -1.382001     .040282


       *******************************************************************
       *********** Output from DALTON general input processing ***********
       *******************************************************************

 --------------------------------------------------------------------------------
   Overall default print level:    0
   Print level for DALTON.STAT:    1

    HERMIT 1- and 2-electron integral sections will be executed
    "Old" integral transformation used (limited to max 255 basis functions)
    Wave function sections will be executed (SIRIUS module)
    Static molecular property section will be executed (ABACUS module)
    Environment effects are included (PElib)
 --------------------------------------------------------------------------------


   ****************************************************************************
   *************** Output of molecule and basis set information ***************
   ****************************************************************************


    The two title cards from your ".mol" input:
    ------------------------------------------------------------------------
 1: LiH fight me                                                            
 2: ------------------------                                                
    ------------------------------------------------------------------------

  Coordinates are entered in Angstrom and converted to atomic units.
          - Conversion factor : 1 bohr = 0.52917721 A

  Atomic type no.    1
  --------------------
  Nuclear charge:   3.00000
  Number of symmetry independent centers:    1
  Number of basis sets to read;    2
  Basis set file used for this atomic type with Z =   3 :
     "/home/reinholdt/Programs/dalton/build-debug/basis/STO-3G"

  Atomic type no.    2
  --------------------
  Nuclear charge:   1.00000
  Number of symmetry independent centers:    1
  Number of basis sets to read;    2
  Basis set file used for this atomic type with Z =   1 :
     "/home/reinholdt/Programs/dalton/build-debug/basis/STO-3G"


                         SYMGRP: Point group information
                         -------------------------------

@    Point group: C1 


                                 Isotopic Masses
                                 ---------------

                           Li          7.016005
                           H           1.007825

                       Total mass:     8.023830 amu
                       Natural abundance:  92.486 %

 Center-of-mass coordinates (a.u.):   -1.620874   -2.467552    0.099204
 Center-of-mass coordinates (Angs):   -0.857730   -1.305772    0.052496


  Atoms and basis sets
  --------------------

  Number of atom types :    2
  Total number of atoms:    2

  Basis set used is "STO-3G" from the basis set library.

  label    atoms   charge   prim   cont     basis
  ----------------------------------------------------------------------
  Li          1    3.0000    15     5      [6s3p|2s1p]                                        
  H           1    1.0000     3     1      [3s|1s]                                            
  ----------------------------------------------------------------------
  total:      2    4.0000    18     6
  ----------------------------------------------------------------------

  Threshold for neglecting AO integrals:  1.00D-12


  Cartesian Coordinates (a.u.)
  ----------------------------

  Total number of coordinates:    6
  Li      :     1  x  -1.1728925345    2  y  -2.4468589606    3  z   0.1025195320
  H       :     4  x  -4.7395143797    5  y  -2.6116033945    6  z   0.0761219478


   Interatomic separations (in Angstrom):
   --------------------------------------

            Li          H     
            ------      ------
 Li    :    0.000000
 H     :    1.889439    0.000000


  Max    interatomic separation is    1.8894 Angstrom (    3.5705 Bohr)
  between atoms    2 and    1, "H     " and "Li    ".

  Min HX interatomic separation is    1.8894 Angstrom (    3.5705 Bohr)


  Bond distances (Angstrom):
  --------------------------

                  atom 1     atom 2       distance
                  ------     ------       --------
  bond distance:  H          Li           1.889439




 Principal moments of inertia (u*A**2) and principal axes
 --------------------------------------------------------

   IA      -0.000000          0.998908    0.046140    0.007393
   IB       3.146002         -0.007385   -0.000341    0.999973
   IC       3.146002         -0.046141    0.998935    0.000000


 Rotational constants
 --------------------

@    The molecule is linear.

               B =       160641.65 MHz     (    5.358429 cm-1)


@  Nuclear repulsion energy :    0.840213227185 Hartree

  Reading potential input file for polarizable embedding calculation

    .------------------------------------------------.
    | Information from polarizable embedding library |
    `------------------------------------------------´

      Number of classical sites:      6

      Multipole moments upto 2nd order.

      Dipole-dipole polarizabilities.

      Iterative solver for induced moments will be used
      with convergence threshold: 1.0E-08
      Total charge of classical region:   -0.0000
 


                     .---------------------------------------.
                     | Starting in Integral Section (HERMIT) |
                     `---------------------------------------'



 ***************************************************************************************
 ****************** Output from **INTEGRALS input processing (HERMIT) ******************
 ***************************************************************************************


 - Using defaults, no **INTEGRALS input found

 Default print level:        1

 Calculation of one- and two-electron Hamiltonian integrals.

 Center of mass  (bohr):     -1.620874441081     -2.467551517543      0.099203890308
 Operator center (bohr):      0.000000000000      0.000000000000      0.000000000000
 Gauge origin    (bohr):      0.000000000000      0.000000000000      0.000000000000
 Dipole origin   (bohr):      0.000000000000      0.000000000000      0.000000000000

Calculation of 2-electron integrals are postponed until they are needed.


     ************************************************************************
     ************************** Output from HERINT **************************
     ************************************************************************



                      Nuclear contribution to dipole moments
                      --------------------------------------

                 au               Debye          C m (/(10**-30)

      x     -8.25819198       -20.99022898       -70.01586738
      y     -9.95218028       -25.29591747       -84.37809823
      z      0.38368054         0.97521861         3.25297912


  Total CPU  time used in HERMIT:   0.00 seconds
  Total wall time used in HERMIT:   0.00 seconds


                        .----------------------------------.
                        | End of Integral Section (HERMIT) |
                        `----------------------------------'



                   .--------------------------------------------.
                   | Starting in Wave Function Section (SIRIUS) |
                   `--------------------------------------------'


 mu value for srDFT is 0.40 (user input)

 *** Output from Huckel module :

     Using EWMO model:          T
     Using EHT  model:          F
     Number of Huckel orbitals each symmetry:    6

 EWMO - Energy Weighted Maximum Overlap - is a Huckel type method,
        which normally is better than Extended Huckel Theory.
 Reference: Linderberg and Ohrn, Propagators in Quantum Chemistry (Wiley, 1973)

 Huckel EWMO eigenvalues for symmetry :  1
           -2.479746      -0.572878      -0.173579      -0.130000      -0.130000
           -0.077797

 SETCI, core memory needed for CI:
 LCINDX =          48
 LACIMX =         126
 LBCIMX =           0

 Number of determinants:             4

 Number of configurations:           3

 Time used in SETCI :      0.02s

 **********************************************************************
 *SIRIUS* a direct, restricted step, second order MCSCF program       *
 **********************************************************************

 
     Date and time (Linux)  : Tue Nov 23 15:01:22 2021
     Host name              : loke                                    

 Title lines from ".mol" input file:
     LiH fight me                                                            
     ------------------------                                                

 Print level on unit LUPRI =   2 is   0
 Print level on unit LUW4  =   2 is   5

@    MC-srDFT optimization.
@              Type: complete active space calculation (CAS).

@    This is a combination run starting with
@              a restricted, closed shell HF-srDFT hybrid calculation


 Initial molecular orbitals are obtained according to
 ".MOSTART EWMO  " input option

@    QM part is embedded in an environment :

@         Model: PE

     Wave function specification
     ============================

     Wave function environment is modeled using the
     polarizable embedding model (PE library).

@    Wave function type        --- PE-MC-srDFT ---
@    Number of closed shell electrons           2
@    Number of electrons in active shells       2
@    Total charge of the molecule               0

@    Spin multiplicity and 2 M_S                1         0
@    Total number of symmetries                 1 (point group: C1 )
@    Reference state symmetry                   1 (irrep name : A  )

@    This is a lrWFT-srDFT calculation using the 
@      SRXPBEGWS               short range exchange functional
@      SRCPBEGWS               short range correlation functional

@    sr-DFT and exact sr-HF exchange weights:    1.000000    0.000000

     Orbital specifications
     ======================
@    Abelian symmetry species          All |    1
@                                          |  A  
                                       --- |  ---
@    Inactive orbitals                   1 |    1
@    Active orbitals                     2 |    2
@    Secondary orbitals                  3 |    3
@    Total number of orbitals            6 |    6
@    Number of basis functions           6 |    6

      -- Initial occupation of symmetries is determined from total charge (only one symmetry!)
      -- Initial occupation of symmetries is :
@    Occupied SCF orbitals               2 |    2

     Optimization information
     ========================
@    Number of configurations                 3
@    Number of orbital rotations             11
     ------------------------------------------
@    Total number of variables               14

     Maximum number of macro iterations      25
     Maximum number of micro iterations     600
     Threshold for MCSCF gradient      1.00D-05
     Number of initial trial vectors          1
     Number of initial CI iterations         -1
     Number of simultaneous trial vectors     1

@    This calculation converges to the lowest state for the specified symmetry and spin species.

     Maximum number of NEO/NR iterations  24


 ***********************************************
 ***** DIIS acceleration of SCF iterations *****
 ***********************************************

 C1-DIIS algorithm; max error vectors =    7

 Iter      Total energy     Embedding energy      Error norm     Delta(E)
 -----------------------------------------------------------------------------

---> (Re)generating AOTWOINT
---> and (re)generating AOSR2INT


     ************************************************************************
     ************************** Output from HERINT **************************
     ************************************************************************


 Threshold for neglecting two-electron integrals:  1.00D-12
 HERMIT - Number of two-electron integrals written:         144 ( 62.3% )
 HERMIT - Megabytes written:                              0.007


 Threshold for neglecting two-electron integrals:  1.00D-12
 HERMIT - Number of two-electron integrals written:         144 ( 62.3% )
 HERMIT - Megabytes written:                              0.007

** Atom Li  
* Grid spacing
 Value chosen:  0.131
 AH =    32.239150000000002     
 RADERR =    1.0000000000000000E-013
* Inner grid point: 1.54003E-05
* Outer point:
 Value chosen:    19.233
 Constant c: 1.09847E-04
 Number of points:    92
Li    1   18868      92     434
** Atom H   
* Grid spacing
 Value chosen:  0.142
 AH =    6.8505018000000000     
 RADERR =    1.0000000000000000E-013
* Inner grid point: 3.34086E-05
* Outer point:
 Value chosen:     9.664
 Constant c: 2.19039E-04
 Number of points:    75
H     1   18258      75     434

   Number of grid points in quadrature:     37126 (100.0%)


   Ex-sr                                 -1.4738006555
   Ec-sr                                 -0.0848738224
   Ex-sr + Ec-sr                         -1.5586744778
 + EJsr = sr Coulomb energy               3.1435868697
 = Total E(srDFT)                         1.5849123919


 Corrections needed for correct CI energy evaluation:
 - 0.5 Tr(Vxc-sr Dcore)                   1.0991615805
 -     Tr(Vxc-sr Dval)                    0.0000000000
 - 0.5 Tr( (Jsr+HFXFAC*Ksr) Dval )        0.0000000000
@  1  -7.84617971077     -3.551362421455E-02    6.44570D-01   -7.85D+00
      Virial theorem: -V/T =      1.952628
@    MULPOP   Li      0.57; H      -0.57; 
   1  Level shift: doubly occupied orbital energies shifted by -2.00D-01
 -----------------------------------------------------------------------------

   Ex-sr                                 -1.3854051552
   Ec-sr                                 -0.0810666567
   Ex-sr + Ec-sr                         -1.4664718119
 + EJsr = sr Coulomb energy               3.0038924483
 = Total E(srDFT)                         1.5374206364


 Corrections needed for correct CI energy evaluation:
 - 0.5 Tr(Vxc-sr Dcore)                   1.0333094283
 -     Tr(Vxc-sr Dval)                    0.0000000000
 - 0.5 Tr( (Jsr+HFXFAC*Ksr) Dval )        0.0000000000
@  2  -7.92365380146     -3.303916715000E-02    1.04874D-01   -7.75D-02
      Virial theorem: -V/T =      1.998876
@    MULPOP   Li      0.10; H      -0.10; 
   2  Level shift: doubly occupied orbital energies shifted by -5.00D-02
 -----------------------------------------------------------------------------

   Ex-sr                                 -1.3722403111
   Ec-sr                                 -0.0804859914
   Ex-sr + Ec-sr                         -1.4527263025
 + EJsr = sr Coulomb energy               2.9847201536
 = Total E(srDFT)                         1.5319938512


 Corrections needed for correct CI energy evaluation:
 - 0.5 Tr(Vxc-sr Dcore)                   1.0234274774
 -     Tr(Vxc-sr Dval)                    0.0000000000
 - 0.5 Tr( (Jsr+HFXFAC*Ksr) Dval )        0.0000000000
@  3  -7.92559330862     -3.284192791054E-02    1.38751D-02   -1.94D-03
      Virial theorem: -V/T =      2.005069
@    MULPOP   Li      0.03; H      -0.03; 
   3  Level shift: doubly occupied orbital energies shifted by -1.25D-02
 -----------------------------------------------------------------------------

   Ex-sr                                 -1.3707028111
   Ec-sr                                 -0.0803676575
   Ex-sr + Ec-sr                         -1.4510704686
 + EJsr = sr Coulomb energy               2.9824132067
 = Total E(srDFT)                         1.5313427381


 Corrections needed for correct CI energy evaluation:
 - 0.5 Tr(Vxc-sr Dcore)                   1.0221999629
 -     Tr(Vxc-sr Dval)                    0.0000000000
 - 0.5 Tr( (Jsr+HFXFAC*Ksr) Dval )        0.0000000000
@  4  -7.92567062534     -3.294994969746E-02    4.26128D-03   -7.73D-05
      Virial theorem: -V/T =      2.005541
@    MULPOP   Li      0.02; H      -0.02; 
 -----------------------------------------------------------------------------

   Ex-sr                                 -1.3707542062
   Ec-sr                                 -0.0803369783
   Ex-sr + Ec-sr                         -1.4510911845
 + EJsr = sr Coulomb energy               2.9823228478
 = Total E(srDFT)                         1.5312316633


 Corrections needed for correct CI energy evaluation:
 - 0.5 Tr(Vxc-sr Dcore)                   1.0221951727
 -     Tr(Vxc-sr Dval)                    0.0000000000
 - 0.5 Tr( (Jsr+HFXFAC*Ksr) Dval )        0.0000000000
@  5  -7.92568012731     -3.303942888139E-02    2.44010D-04   -9.50D-06
      Virial theorem: -V/T =      2.005387
@    MULPOP   Li      0.02; H      -0.02; 
 -----------------------------------------------------------------------------

   Ex-sr                                 -1.3707780170
   Ec-sr                                 -0.0803375543
   Ex-sr + Ec-sr                         -1.4511155712
 + EJsr = sr Coulomb energy               2.9823460780
 = Total E(srDFT)                         1.5312305068


 Corrections needed for correct CI energy evaluation:
 - 0.5 Tr(Vxc-sr Dcore)                   1.0222127463
 -     Tr(Vxc-sr Dval)                    0.0000000000
 - 0.5 Tr( (Jsr+HFXFAC*Ksr) Dval )        0.0000000000
@  6  -7.92568014074     -3.304301981567E-02    2.77017D-05   -1.34D-08
      Virial theorem: -V/T =      2.005376
@    MULPOP   Li      0.02; H      -0.02; 
 -----------------------------------------------------------------------------

   Ex-sr                                 -1.3707762958
   Ec-sr                                 -0.0803376216
   Ex-sr + Ec-sr                         -1.4511139174
 + EJsr = sr Coulomb energy               2.9823447470
 = Total E(srDFT)                         1.5312308296


 Corrections needed for correct CI energy evaluation:
 - 0.5 Tr(Vxc-sr Dcore)                   1.0222116296
 -     Tr(Vxc-sr Dval)                    0.0000000000
 - 0.5 Tr( (Jsr+HFXFAC*Ksr) Dval )        0.0000000000
@  7  -7.92568014107     -3.304334686351E-02    4.76846D-06   -3.29D-10

@ *** DIIS converged in   7 iterations !
@     Converged SCF energy, gradient:     -7.925680141070    4.77D-06
    - total time used in SIRFCK :              0.00 seconds

    .--------------------------------------------------.
    | Final results from polarizable embedding library |
    `--------------------------------------------------´

        Polarizable embedding energy contributions:
       ---------------------------------------------

       Electrostatic contributions:
            Electronic                 0.055407498524
            Nuclear                   -0.076546168767
            Multipole                  0.000000000000
            Total                     -0.021138670242

       Polarization contributions:
            Electronic                 0.025904212204
            Nuclear                   -0.032107215113
            Multipole                 -0.005701673712
            Total                     -0.011904676621

       Total PE energy:               -0.033043346864
            (excl. multipole-multipole interaction energy)

 --- Writing SIRIFC interface file

--------------------------------------------------------------------------------


     .-----------------------------------------------------------------.
     | HF-srDFT KT IPs [a.u. & eV], pole strengths, and Dyson orbitals |
     `-----------------------------------------------------------------'

     HF-srDFT KT symmetry 1 ( A  ) in point group C1  -- 2 principal poles

   ============  ============
       1.942936      0.247786
      52.869965      6.742596
   ------------  ------------
       1.000000      1.000000
   ============  ============
       1.000000     -0.000000
      -0.000000     -1.000000
   ============  ============
  

@ Summary of HF-srDFT KT ionization potentials [eV] and pole strengths:

@ Symmetry 1 (A  ) :    52.870       6.743
@ Pole strengths   :     1.000       1.000

  === End of HF-srDFT KT output ===
--------------------------------------------------------------------------------



                           +---------------------------+
                           ! Writing FOCKMAT in siropt !
                           +---------------------------+


 CPU and wall time for SCF :       0.756       1.056


        SIRIUS MC-srDFT optimization (SIROPT)
 ================================================


INFO : spin density ignored in initial CI iterations.


 ----- Output from SIRIUS CI module (CICTL) -----




 2-el. integral transformation level 0: Total CPU and WALL times (sec)       0.000       0.001

 (CIST1) 3 lowest diagonal elements:

 Element no. Config.no.    Active energy      Total energy

         1 :          1     -1.3557694263     -9.4238676238
         2 :          3     -1.1517419675     -9.2198401650
         3 :          2     -0.7909773357     -8.8590755332
First 1 elements used as separate start vectors.


 Convergence threshold for CI optimization :     0.01000000


 The requested root number is now converged.


 *** CI converged in  2 iterations.


SR 0-el. energy for input .STATE    1
-------------------------------------

   SR core    Hartree energy   :           2.429557012532
 - SR valence Hartree energy   :          -0.317826378028
 + SR Exchange-correlation     :          -1.451113917383
 - SR Exchange-correlation pot.:           0.341356467503

 = Total eff. SR 0-el. energy  :           1.001973184623

CI-DFT energy for state no.    1
-------------------------------------

 SR eff. 1-el. energy          :           0.529257644970
 SR total Hartree energy       :           2.982344746977
 SR eff. total DFT energy      :           1.531230829594
 LR total CI  energy           :          -9.424098681176

 Total CI-DFT energy           :          -7.892867851582

 Decomposition of the auxiliary CI-srDFT energy:
 ELRCI        :          -9.424098681176
 EMYDFTAUX    :           3.391008589869
 ESRDV        :           0.529257644970
 POTNUC       :           0.840213227185
 

 Auxiliary CI-srDFT energy for root 1:        -6.344045673521


@ Final CI energies and residuals in symmetry 1 (irrep A  )
@    1       -7.892867851582346       7.17D-04

   --- OUTPUT FROM SIRCNO     Keyword = ONLYFD


   Ex-sr                                 -1.3716859204
   Ec-sr                                 -0.0804460982
   Ex-sr + Ec-sr                         -1.4521320186
 + EJsr = sr Coulomb energy               2.9837152943
 = Total E(srDFT)                         1.5315832757


 Corrections needed for correct CI energy evaluation:
 - 0.5 Tr(Vxc-sr Dcore)                   0.8514443335
 -     Tr(Vxc-sr Dval)                    0.3431074514
 - 0.5 Tr( (Jsr+HFXFAC*Ksr) Dval )       -0.4375187755


 --- MACRO ITERATION  1 ---
 --------------------------

 2-el. integral transformation level 3: Total CPU and WALL times (sec)       0.000       0.001


SIRFCK INFO: Open-shell srDFT is only implemented for .DIRECT Fock matrix construction.
SIRFCK INFO: Dalton therefore shifts to AO DIRECT in this call.

***  INFO  GETGAB: GABAOXXX not found on AOPROPER. Regenerating.

***  INFO  GETGAB: GABSRXXX not found on AOPROPER. Regenerating.

   Ex-sr                                 -1.3716859204
   Ec-sr                                 -0.0804460982
   Ex-sr + Ec-sr                         -1.4521320186
 + EJsr = sr Coulomb energy               2.9837152943
 = Total E(srDFT)                         1.5315832757


 Corrections needed for correct CI energy evaluation:
 - 0.5 Tr(Vxc-sr Dcore)                   0.8514443335
 -     Tr(Vxc-sr Dval)                    0.3431074514
 - 0.5 Tr( (Jsr+HFXFAC*Ksr) Dval )       -0.4375187755

 Total MC-srDFT energy    :            -7.925794219705994  (MACRO    1)

 - Nuclear repulsion      :             0.840213227184510
 - Inactive energy        :            -7.213559239334879
 - Active energy          :            -0.824415095915604
 - srDFT effective energy :            -0.695099009168576
 - Embedding energy       :            -0.032934102471444

 Norm of total gradient   :             0.009232580254
 -    of CI gradient      :             0.008513471308
 -    of orbital gradient :             0.003572302400


 *** Label "NATOCC  " not found on SIRIUS.RST in SIRPOP

 WARNING, occupation of active orbitals not available
          population analysis aborted.
          Use ".TRACI" option.



SIRFCK INFO: Open-shell srDFT is only implemented for .DIRECT Fock matrix construction.
SIRFCK INFO: Dalton therefore shifts to AO DIRECT in this call.


SIRFCK INFO: Open-shell srDFT is only implemented for .DIRECT Fock matrix construction.
SIRFCK INFO: Dalton therefore shifts to AO DIRECT in this call.


SIRFCK INFO: Open-shell srDFT is only implemented for .DIRECT Fock matrix construction.
SIRFCK INFO: Dalton therefore shifts to AO DIRECT in this call.

 Residual norm when dim(red L) =   4
 NEO root     CSF        orbital          total
    1     0.00000741     0.00159910     0.00159912 converged

 (NEONEX) NEO vector is converged.

   --- OUTPUT FROM SIRCNO     Keyword = FD+NO 


   Ex-sr                                 -1.3661593307
   Ec-sr                                 -0.0800555876
   Ex-sr + Ec-sr                         -1.4462149183
 + EJsr = sr Coulomb energy               2.9759929541
 = Total E(srDFT)                         1.5297780358


 Corrections needed for correct CI energy evaluation:
 - 0.5 Tr(Vxc-sr Dcore)                   0.8591855450
 -     Tr(Vxc-sr Dval)                    0.3188860519
 - 0.5 Tr( (Jsr+HFXFAC*Ksr) Dval )       -0.4098213277

 Occupations of CAS natural orbitals:

 Symmetry  1 ( irrep A   in C1  )

   1.992409123   0.007590877


 --- MACRO ITERATION  2 ---
 --------------------------

 2-el. integral transformation level 3: Total CPU and WALL times (sec)       0.000       0.000


SIRFCK INFO: Open-shell srDFT is only implemented for .DIRECT Fock matrix construction.
SIRFCK INFO: Dalton therefore shifts to AO DIRECT in this call.

   Ex-sr                                 -1.3661593307
   Ec-sr                                 -0.0800555876
   Ex-sr + Ec-sr                         -1.4462149183
 + EJsr = sr Coulomb energy               2.9759929541
 = Total E(srDFT)                         1.5297780358


 Corrections needed for correct CI energy evaluation:
 - 0.5 Tr(Vxc-sr Dcore)                   0.8591855450
 -     Tr(Vxc-sr Dval)                    0.3188860519
 - 0.5 Tr( (Jsr+HFXFAC*Ksr) Dval )       -0.4098213277

 Total MC-srDFT energy    :            -7.926600523902931  (MACRO    2)

 - Nuclear repulsion      :             0.840213227184510
 - Inactive energy        :            -7.208984039182118
 - Active energy          :            -0.846775695258631
 - srDFT effective energy :            -0.677964649032286
 - Embedding energy       :            -0.033089367614406

 Norm of total gradient   :             0.032056358414
 -    of CI gradient      :             0.020372618199
 -    of orbital gradient :             0.024750081666
      Virial theorem: -V/T =      2.007010
@    MULPOP   Li     -0.01; H       0.01; 


SIRFCK INFO: Open-shell srDFT is only implemented for .DIRECT Fock matrix construction.
SIRFCK INFO: Dalton therefore shifts to AO DIRECT in this call.


SIRFCK INFO: Open-shell srDFT is only implemented for .DIRECT Fock matrix construction.
SIRFCK INFO: Dalton therefore shifts to AO DIRECT in this call.


SIRFCK INFO: Open-shell srDFT is only implemented for .DIRECT Fock matrix construction.
SIRFCK INFO: Dalton therefore shifts to AO DIRECT in this call.


SIRFCK INFO: Open-shell srDFT is only implemented for .DIRECT Fock matrix construction.
SIRFCK INFO: Dalton therefore shifts to AO DIRECT in this call.


SIRFCK INFO: Open-shell srDFT is only implemented for .DIRECT Fock matrix construction.
SIRFCK INFO: Dalton therefore shifts to AO DIRECT in this call.

 Residual norm when dim(red L) =   6
 NEO root     CSF        orbital          total
    1     0.00005504     0.00348603     0.00348646 converged

 (NEONEX) NEO vector is converged.

   --- OUTPUT FROM SIRCNO     Keyword = FD+NO 


   Ex-sr                                 -1.3712750998
   Ec-sr                                 -0.0803116940
   Ex-sr + Ec-sr                         -1.4515867938
 + EJsr = sr Coulomb energy               2.9821638068
 = Total E(srDFT)                         1.5305770131


 Corrections needed for correct CI energy evaluation:
 - 0.5 Tr(Vxc-sr Dcore)                   0.8522694935
 -     Tr(Vxc-sr Dval)                    0.3405691591
 - 0.5 Tr( (Jsr+HFXFAC*Ksr) Dval )       -0.4339253771

 Occupations of CAS natural orbitals:

 Symmetry  1 ( irrep A   in C1  )

   1.994548878   0.005451122


 --- MACRO ITERATION  3 ---
 --------------------------

 2-el. integral transformation level 3: Total CPU and WALL times (sec)       0.000       0.000


SIRFCK INFO: Open-shell srDFT is only implemented for .DIRECT Fock matrix construction.
SIRFCK INFO: Dalton therefore shifts to AO DIRECT in this call.

   Ex-sr                                 -1.3712750998
   Ec-sr                                 -0.0803116940
   Ex-sr + Ec-sr                         -1.4515867938
 + EJsr = sr Coulomb energy               2.9821638068
 = Total E(srDFT)                         1.5305770131


 Corrections needed for correct CI energy evaluation:
 - 0.5 Tr(Vxc-sr Dcore)                   0.8522694935
 -     Tr(Vxc-sr Dval)                    0.3405691591
 - 0.5 Tr( (Jsr+HFXFAC*Ksr) Dval )       -0.4339253771

 Total MC-srDFT energy    :            -7.927048844237825  (MACRO    3)

 - Nuclear repulsion      :             0.840213227184510
 - Inactive energy        :            -7.214591594374324
 - Active energy          :            -0.826864672522471
 - srDFT effective energy :            -0.692673518297660
 - Embedding energy       :            -0.033132286227879

 Norm of total gradient   :             0.009619182201
 -    of CI gradient      :             0.007859058621
 -    of orbital gradient :             0.005546518170
      Virial theorem: -V/T =      2.005168
@    MULPOP   Li      0.03; H      -0.03; 


SIRFCK INFO: Open-shell srDFT is only implemented for .DIRECT Fock matrix construction.
SIRFCK INFO: Dalton therefore shifts to AO DIRECT in this call.


SIRFCK INFO: Open-shell srDFT is only implemented for .DIRECT Fock matrix construction.
SIRFCK INFO: Dalton therefore shifts to AO DIRECT in this call.


SIRFCK INFO: Open-shell srDFT is only implemented for .DIRECT Fock matrix construction.
SIRFCK INFO: Dalton therefore shifts to AO DIRECT in this call.


SIRFCK INFO: Open-shell srDFT is only implemented for .DIRECT Fock matrix construction.
SIRFCK INFO: Dalton therefore shifts to AO DIRECT in this call.


SIRFCK INFO: Open-shell srDFT is only implemented for .DIRECT Fock matrix construction.
SIRFCK INFO: Dalton therefore shifts to AO DIRECT in this call.


SIRFCK INFO: Open-shell srDFT is only implemented for .DIRECT Fock matrix construction.
SIRFCK INFO: Dalton therefore shifts to AO DIRECT in this call.


SIRFCK INFO: Open-shell srDFT is only implemented for .DIRECT Fock matrix construction.
SIRFCK INFO: Dalton therefore shifts to AO DIRECT in this call.


SIRFCK INFO: Open-shell srDFT is only implemented for .DIRECT Fock matrix construction.
SIRFCK INFO: Dalton therefore shifts to AO DIRECT in this call.


SIRFCK INFO: Open-shell srDFT is only implemented for .DIRECT Fock matrix construction.
SIRFCK INFO: Dalton therefore shifts to AO DIRECT in this call.


SIRFCK INFO: Open-shell srDFT is only implemented for .DIRECT Fock matrix construction.
SIRFCK INFO: Dalton therefore shifts to AO DIRECT in this call.


SIRFCK INFO: Open-shell srDFT is only implemented for .DIRECT Fock matrix construction.
SIRFCK INFO: Dalton therefore shifts to AO DIRECT in this call.


SIRFCK INFO: Open-shell srDFT is only implemented for .DIRECT Fock matrix construction.
SIRFCK INFO: Dalton therefore shifts to AO DIRECT in this call.


SIRFCK INFO: Open-shell srDFT is only implemented for .DIRECT Fock matrix construction.
SIRFCK INFO: Dalton therefore shifts to AO DIRECT in this call.

 (ORTBVC) new orbital b-vector no.  1
 is removed because of linear dependence;
 norm of vector after Gram-Schmidt's orthogonalization 2.04554D-16

 (ORTBVC) NBOSIM reduced from  1 to  0

 (SIRNEO) iteration (  3, 13)
 microiterations stopped because of linear dependence

   --- OUTPUT FROM SIRCNO     Keyword = FD+NO 


   Ex-sr                                 -1.3704509735
   Ec-sr                                 -0.0802440549
   Ex-sr + Ec-sr                         -1.4506950284
 + EJsr = sr Coulomb energy               2.9816015292
 = Total E(srDFT)                         1.5309065008


 Corrections needed for correct CI energy evaluation:
 - 0.5 Tr(Vxc-sr Dcore)                   0.8503719722
 -     Tr(Vxc-sr Dval)                    0.3429868806
 - 0.5 Tr( (Jsr+HFXFAC*Ksr) Dval )       -0.4371624567

 Occupations of CAS natural orbitals:

 Symmetry  1 ( irrep A   in C1  )

   1.995180896   0.004819104


 --- MACRO ITERATION  4 ---
 --------------------------

 2-el. integral transformation level 3: Total CPU and WALL times (sec)       0.000       0.000


SIRFCK INFO: Open-shell srDFT is only implemented for .DIRECT Fock matrix construction.
SIRFCK INFO: Dalton therefore shifts to AO DIRECT in this call.

   Ex-sr                                 -1.3704509735
   Ec-sr                                 -0.0802440549
   Ex-sr + Ec-sr                         -1.4506950284
 + EJsr = sr Coulomb energy               2.9816015292
 = Total E(srDFT)                         1.5309065008


 Corrections needed for correct CI energy evaluation:
 - 0.5 Tr(Vxc-sr Dcore)                   0.8503719722
 -     Tr(Vxc-sr Dval)                    0.3429868806
 - 0.5 Tr( (Jsr+HFXFAC*Ksr) Dval )       -0.4371624567

 Total MC-srDFT energy    :            -7.927084028971920  (MACRO    4)

 - Nuclear repulsion      :             0.840213227184510
 - Inactive energy        :            -7.210443466361076
 - Active energy          :            -0.829264302006930
 - srDFT effective energy :            -0.694498632337731
 - Embedding energy       :            -0.033090855450692

 Norm of total gradient   :             0.000407531157
 -    of CI gradient      :             0.000091023385
 -    of orbital gradient :             0.000397235934
      Virial theorem: -V/T =      2.005238
@    MULPOP   Li      0.02; H      -0.02; 


SIRFCK INFO: Open-shell srDFT is only implemented for .DIRECT Fock matrix construction.
SIRFCK INFO: Dalton therefore shifts to AO DIRECT in this call.


SIRFCK INFO: Open-shell srDFT is only implemented for .DIRECT Fock matrix construction.
SIRFCK INFO: Dalton therefore shifts to AO DIRECT in this call.


SIRFCK INFO: Open-shell srDFT is only implemented for .DIRECT Fock matrix construction.
SIRFCK INFO: Dalton therefore shifts to AO DIRECT in this call.


SIRFCK INFO: Open-shell srDFT is only implemented for .DIRECT Fock matrix construction.
SIRFCK INFO: Dalton therefore shifts to AO DIRECT in this call.


SIRFCK INFO: Open-shell srDFT is only implemented for .DIRECT Fock matrix construction.
SIRFCK INFO: Dalton therefore shifts to AO DIRECT in this call.


SIRFCK INFO: Open-shell srDFT is only implemented for .DIRECT Fock matrix construction.
SIRFCK INFO: Dalton therefore shifts to AO DIRECT in this call.

 Residual norm when dim(red L) =   7
 NEO root     CSF        orbital          total
    1     0.00000386     0.00000232     0.00000451 converged

 (NEONEX) NEO vector is converged.

   --- OUTPUT FROM SIRCNO     Keyword = FD+NO 


   Ex-sr                                 -1.3704313395
   Ec-sr                                 -0.0802439147
   Ex-sr + Ec-sr                         -1.4506752543
 + EJsr = sr Coulomb energy               2.9815429011
 = Total E(srDFT)                         1.5308676468


 Corrections needed for correct CI energy evaluation:
 - 0.5 Tr(Vxc-sr Dcore)                   0.8502533456
 -     Tr(Vxc-sr Dval)                    0.3431989397
 - 0.5 Tr( (Jsr+HFXFAC*Ksr) Dval )       -0.4374255812

 Occupations of CAS natural orbitals:

 Symmetry  1 ( irrep A   in C1  )

   1.995181968   0.004818032


 --- MACRO ITERATION  5 ---
 --------------------------

 2-el. integral transformation level 3: Total CPU and WALL times (sec)       0.000       0.000


SIRFCK INFO: Open-shell srDFT is only implemented for .DIRECT Fock matrix construction.
SIRFCK INFO: Dalton therefore shifts to AO DIRECT in this call.

   Ex-sr                                 -1.3704313395
   Ec-sr                                 -0.0802439147
   Ex-sr + Ec-sr                         -1.4506752543
 + EJsr = sr Coulomb energy               2.9815429011
 = Total E(srDFT)                         1.5308676468


 Corrections needed for correct CI energy evaluation:
 - 0.5 Tr(Vxc-sr Dcore)                   0.8502533456
 -     Tr(Vxc-sr Dval)                    0.3431989397
 - 0.5 Tr( (Jsr+HFXFAC*Ksr) Dval )       -0.4374255812

 Total MC-srDFT energy    :            -7.927084087047414  (MACRO    5)

 - Nuclear repulsion      :             0.840213227184510
 - Inactive energy        :            -7.210275191525790
 - Active energy          :            -0.829280806313631
 - srDFT effective energy :            -0.694648550168544
 - Embedding energy       :            -0.033092766223959

 Norm of total gradient   :             0.000005373497
 -    of CI gradient      :             0.000004897055
 -    of orbital gradient :             0.000002212085
      Virial theorem: -V/T =      2.005260
@    MULPOP   Li      0.02; H      -0.02; 

 *** Optimization control: MC-srDFT converged ***
     Number of macro iterations used            5
     Number of micro iterations used           27
     Total number of CPU seconds used         7.71
     Total WALL time used (seconds)           9.36

    .--------------------------------------------------.
    | Final results from polarizable embedding library |
    `--------------------------------------------------´

        Polarizable embedding energy contributions:
       ---------------------------------------------

       Electrostatic contributions:
            Electronic                 0.055343741755
            Nuclear                   -0.076546168767
            Multipole                  0.000000000000
            Total                     -0.021202427012

       Polarization contributions:
            Electronic                 0.025810787358
            Nuclear                   -0.031996104830
            Multipole                 -0.005705021745
            Total                     -0.011890339216

       Total PE energy:               -0.033092766229
            (excl. multipole-multipole interaction energy)

--------------------------------------------------------------------------------


     .------------------------------------------------------------------.
     | MC-srDFT EKT IPs [a.u. & eV], pole strengths, and Dyson orbitals |
     `------------------------------------------------------------------'


EKT : Largest asymmetry in V = generalized Fock matrix :      1.53942E-06 for I,J =    3    2
     MC-srDFT EKT symmetry 1 ( A  ) in point group C1  -- 2 principal poles

   ============  ============  ============
       1.942585      0.245720      0.572058
      52.860436      6.686371     15.566495
   ------------  ------------  ------------
       0.999998      0.984414      0.015588
   ============  ============  ============
       0.999972      0.007487      0.000580
       0.007362     -0.992132      0.114938
       0.000071     -0.005648     -0.048756
   ============  ============  ============
  

@ Summary of MC-srDFT EKT ionization potentials [eV] and pole strengths:

@ Symmetry 1 (A  ) :    52.860       6.686      15.566
@ Pole strengths   :     1.000       0.984       0.016

  === End of MC-srDFT EKT output ===
--------------------------------------------------------------------------------



                           +---------------------------+
                           ! Writing FOCKMAT in siropt !
                           +---------------------------+


 CPU and wall time for MCSCF :       7.721       9.369


                     .----------------------------------------.
                     | --- SIRIUS OPTIMIZATION STATISTICS --- |
                     `----------------------------------------'


 
     Date and time (Linux)  : Tue Nov 23 15:01:33 2021
     Host name              : loke                                    


  ITER ITMIC     EMCSCF           GRDNRM        RATIO      STPLNG
 ---------------------------------------------------------------------
    1    3     -7.925794219706   0.0092325803  0.000000   0.6982358853
    2    5     -7.926600523903   0.0320563584  0.426280   0.3418979015
    3   13     -7.927048844238   0.0096191822  0.879511   0.0393253279
    4    6     -7.927084028972   0.0004075312  1.000851   0.0046165848
    5    0     -7.927084087047   0.0000053735  0.998516   0.0000000000


  ITER  INDGCM  GCIMAX      GCINRM     INDGOM  GOBMAX      GOBNRM      GRDNRM
 ------------------------------------------------------------------------------
    1      3   -0.008255    0.008513      8   -0.003341    0.003572    0.009233
    2      3   -0.015096    0.020373      8    0.022806    0.024750    0.032056
    3      3    0.006588    0.007859      2   -0.004527    0.005547    0.009619
    4      2    0.000074    0.000091      2    0.000386    0.000397    0.000408
    5      2    0.000004    0.000005      3   -0.000001    0.000002    0.000005


  ITER ITMIC NCLIN NOLIN   TIMMAC    TIMITR    TIMMIC    TIMLIN    TIMMIC/ITMIC
 ------------------------------------------------------------------------------

    1     3     2     1      0.94      0.00      0.84      0.74      0.28
    2     5     2     3      1.42      0.00      1.31      1.19      0.26
    3    13     2    11      3.35      0.00      3.22      3.12      0.25
    4     6     1     5      1.64      0.00      1.53      1.43      0.25
    5     0     0     0      0.11      0.00      0.00      0.00


 ITER         EMY                 EACTIV              EMCSCF

    1     -7.908658248503     -0.824415095916     -7.925794219706
    2     -7.886948688214     -0.846775695259     -7.926600523903
    3     -7.907265112672     -0.826864672522     -7.927048844238
    4     -7.904942098699     -0.829264302007     -7.927084028972
    5     -7.904923741694     -0.829280806314     -7.927084087047


 ITER         DEPRED              DEACT               RATIO

    1      0.000000000000      0.000000000000      0.000000000000
    2     -0.001891489615     -0.000806304197      0.426280002119
    3     -0.000509737969     -0.000448320335      0.879511361117
    4     -0.000035154803     -0.000035184734      1.000851403105
    5     -0.000000058162     -0.000000058075      0.998515517865


 ITER    BETA           GAMMA             STPLNG              RTRUST

    1      2.49726797  1.00000000      0.698235885264      0.700000000000
    2      0.20000000  1.00000000      0.341897901467      0.700000000000
    3      0.20000000  1.00000000      0.039325327887      0.700000000000
    4      0.20000000  1.00000000      0.004616584770      0.700000000000
    5      0.00000000  0.00000000      0.000000000000      0.700000000000


 Reduced L root no.  1
 ITER         EVAL              EVEC(1)           EVEC(2)           EVEC(3)
 ----------------------------------------------------------------------------
    1   -0.005838979535   -0.497492286127    0.036330208932    0.864809374866
    2   -0.000040589252    0.997670283233   -0.004476640044   -0.059333855933
    3   -0.000002812210    0.999969071807   -0.001479502279   -0.006923174325
    4   -0.000000004653    0.999999573743   -0.000870007846   -0.000294520550
    5    0.000000000000    0.000000000000    0.000000000000    0.000000000000


                       .-----------------------------------.
                       | --- Final results from SIRIUS --- |
                       `-----------------------------------'


@    Spin multiplicity:           1
@    Spatial symmetry:            1 ( irrep  A   in C1  )
@    Total charge of molecule:    0

@    This was an MC-srDFT calculation with mu =   0.400
@    State number:                1

@    Final MC-SRDFT energy:        -7.927084087047                 
@    Nuclear repulsion:             0.840213227185
@    Electronic energy:            -8.734204548008
@    Embedding energy:             -0.033092766224

@    Final gradient norm:           0.000005373497

 
     Date and time (Linux)  : Tue Nov 23 15:01:33 2021
     Host name              : loke                                    

 Occupancies of natural orbitals
 -------------------------------

 Symmetry 1  ( A  ) -- Total occupation in this symmetry is   4.000000000

   2.000000000   1.995181968   0.004818032

File label for MO orbitals:  23Nov21   (CNOORB)

 (Only coefficients > 0.0100 are printed.)

 Molecular orbitals for symmetry species 1  (A  )
 ------------------------------------------------

    Orbital         1        2        3        4        5        6
   1 Li  :1s    -0.9852  -0.1723  -0.2259   0.0868   0.0000   0.0758
   2 Li  :1s    -0.0551   0.4770   0.9391  -0.2862  -0.0000  -0.1735
   3 Li  :2px    0.0020  -0.3208  -0.3725  -0.4336  -0.0015  -0.9283
   4 Li  :2py   -0.0012   0.0202   0.1506   0.8548  -0.1243  -0.4810
   5 Li  :2pz   -0.0001   0.0021   0.0182   0.1064   0.9922  -0.0617
   6 H   :1s    -0.0006   0.5822  -0.9294  -0.0886  -0.0000  -0.4865

 Printout of CI-coefficients abs greater than 0.05000 for root  1
 *** NOTE: this root is the reference state ***

 Printout of coefficients in interval  3.1623E-01 to  1.0000E+00
 ===============================================================

  Coefficient of CSF no.         1 is     -0.99879477   -9.98794766E-01
  Orbital          1
  Spin coupling    2

 Printout of coefficients in interval  1.0000E-01 to  3.1623E-01
 ===============================================================
   ( no coefficients )

 Printout of coefficients in interval  5.0000E-02 to  1.0000E-01
 ===============================================================
   ( no coefficients )

 Norm of printed CI vector ..      0.99759098

 Magnitude of CI coefficients
 ============================
 ( Ranges are relative to norm of vector :  1.00E+00 )

  10- 1 to 10- 0         1    0.99759098E+00      0.9975909841
  10- 2 to 10- 1         1    0.24090159E-02      1.0000000000
  Number of coefficients less than 10^-11 times norm is            1

  Total CPU  time used in SIRIUS :   8.48 seconds
  Total wall time used in SIRIUS :  10.44 seconds

 
     Date and time (Linux)  : Tue Nov 23 15:01:33 2021
     Host name              : loke                                    

 NOTE:    1 warnings have been issued.
 Check output, result, and error files for "WARNING".


                     .---------------------------------------.
                     | End of Wave Function Section (SIRIUS) |
                     `---------------------------------------'



        *****************************************************************
        ******** Output from **PROPE input processing for ABACUS ********
        *****************************************************************

     Environment effects are included through the PE library


 The following molecular properties will be calculated in this run:
 ------------------------------------------------------------------

 Default print level:        0

      Electronic excitation energies 
      Natural orbital connection is used
      for perturbation dependent basis sets.
     Environment effects are included through the PE library


 Changes of defaults for .EXCITA:
 --------------------------------

 Number of excitation energies:    2
 Print level          :    0
 Integral print level :    0
 Convergence threshold: 1.00E-04
 Maximum iterations   :   60
 Dipole strength

 INFO SIR_INTOPEN, old integral transformation not found as expected, ICASE = 3
 - ICASE = 1: MO integral file MOTWOINT does not exist
 - ICASE = 2: no MO integrals on MOTWOINT
 - ICASE = 3: transformation level on MOTWOINT not sufficient
 ITRLVL requested & ITRLVL on MOTWOINT :    4    3

 NSETUP: MO transformation level too low or no MO integral file found.
 NSETUP: generating MO 2-el. integral file. Transformation level: 4


 Old direct access AO file found, SORTA skipped.

 2-el. integral transformation level 4: Total CPU and WALL times (sec)       0.000       0.000

 Sorting integrals to Dirac format: Total CPU and WALL times (sec)       0.000       0.000

 Center of mass dipole origin  :   -1.620874   -2.467552    0.099204

 Center of mass gauge origin   :   -1.620874   -2.467552    0.099204


                 .------------------------------------------------.
                 | Starting in Static Property Section (ABACUS) - |
                 `------------------------------------------------'


 
     Date and time (Linux)  : Tue Nov 23 15:01:33 2021
     Host name              : loke                                    


                  **********************************************
                  *** ABACUS - Excitation energies (.EXCITA) ***
                  **********************************************


srDFT INFO: DIRFCK reset because it must be true in **RESPONS

srDFT INFO: DFT_SPINDNS set to false for singlet reference.

  ********* WARNING ORBDIA *********** 
  DIAGONAL ORBITAL HESSIAN HAS     1  NEGATIVE ELEMENTS
  Time used in EXCITA     is       2.68 seconds


   ***************************************************************************
   ************************ FINAL RESULTS from ABACUS ************************
   ***************************************************************************


 
     Date and time (Linux)  : Tue Nov 23 15:01:36 2021
     Host name              : loke                                    


                             Molecular geometry (au)
                             -----------------------

 Li        -1.1728925345           -2.4468589606            0.1025195320
 H         -4.7395143797           -2.6116033945            0.0761219478





                        Molecular wave function and energy
                        ----------------------------------

     Spatial symmetry   1 ( A   )
     Spin multiplicity  1
     2 * M_S            0
     State number       1
     Total charge       0

     Total energy         -7.9270840870 au (Hartrees)
                          -215.70693076 eV
                            -20812.5561 kJ/mol
                             -4974.3203 kcal/mol


                   Scalar Breit-Pauli relativistic corrections
                   -------------------------------------------

     Darwin correction:                          0.0020457292 au
     Mass-velocity correction:                  -0.0024213336 au

     Total relativistic correction:             -0.0003756043 au ( 0.0047%)
     Non-relativistic + relativistic energy:    -7.9274596914 au



      (Note that these corrections are NOT included in the results below.)


                                  Dipole moment
                                  -------------

                 au               Debye          C m (/(10**-30)
              1.966864           4.999268          16.675764


                             Dipole moment components
                             ------------------------

                 au               Debye          C m (/(10**-30)

      x      1.96623164         4.99766201        16.67040606
      y     -0.04973568        -0.12641548        -0.42167664
      z     -0.00341835        -0.00868857        -0.02898196


   Units:   1 a.u. =   2.54175 Debye 
            1 a.u. =   8.47835 (10**-30) C m (SI)




@               Singlet electronic excitation energies
                --------------------------------------

               ========================================
                 Sym.   Mode   Frequency    Frequency
                ex. st.  No.      (au)         (eV)
               ----------------------------------------
                   1      1     0.179261     4.877933
                   1      2     0.202048     5.498011
               ========================================


@               Electric transition dipole moments (au)
                ---------------------------------------

@        Mode    Frequency       Velocity/Frequency              Length
@         No.      (au)          x       y       z         x       y       z
@==============================================================================
@           1     0.179261    -0.5272 -0.7333 -0.0248   -0.5741 -1.0451 -0.0386
@           2     0.202048    -0.1843  0.2215 -0.8103   -0.1893  0.3275 -1.2550
@------------------------------------------------------------------------------


@                              Oscillator strengths
                               --------------------

@  Oscillator strengths are dimensionless.

@  Sym.   Mode        Frequency     Oscillator-strength
@ ex. st.  No.           (eV)        velocity   length
@ -------------------------------------------------------
@  1        1         4.877933        0.0976   0.1701
@  1        2         5.498011        0.0996   0.2314


   Interatomic separations (in Angstrom):
   --------------------------------------

            Li          H     
            ------      ------
 Li    :    0.000000
 H     :    1.889439    0.000000


  Max    interatomic separation is    1.8894 Angstrom (    3.5705 Bohr)
  between atoms    2 and    1, "H     " and "Li    ".

  Min HX interatomic separation is    1.8894 Angstrom (    3.5705 Bohr)


  Bond distances (Angstrom):
  --------------------------

                  atom 1     atom 2       distance
                  ------     ------       --------
  bond distance:  H          Li           1.889439




 CPU time statistics for ABACUS
 ------------------------------

 EXCITA     00:00:03     100 %

 TOTAL      00:00:03     100 %


  Total CPU  time used in ABACUS:   2.69 seconds
  Total wall time used in ABACUS:   3.24 seconds


                   .-------------------------------------------.
                   | End of Static Property Section (ABACUS) - |
                   `-------------------------------------------'

  Total CPU  time used in DALTON:  11.18 seconds
  Total wall time used in DALTON:  13.71 seconds

 
     Date and time (Linux)  : Tue Nov 23 15:01:36 2021
     Host name              : loke                                    
