

     ************************************************************************
     *************** Dalton - An Electronic Structure Program ***************
     ************************************************************************

    This is output from DALTON release Dalton2020.0.beta (2020)
         ( Web site: http://daltonprogram.org )

   ----------------------------------------------------------------------------

    NOTE:
     
    Dalton is an experimental code for the evaluation of molecular
    properties using (MC)SCF, DFT, CI, and CC wave functions.
    The authors accept no responsibility for the performance of
    the code or for the correctness of the results.
     
    The code (in whole or part) is provided under a licence and
    is not to be reproduced for further distribution without
    the written permission of the authors or their representatives.
     
    See the home page "http://daltonprogram.org" for further information.
     
    If results obtained with this code are published,
    the appropriate citations would be both of:
     
       K. Aidas, C. Angeli, K. L. Bak, V. Bakken, R. Bast,
       L. Boman, O. Christiansen, R. Cimiraglia, S. Coriani,
       P. Dahle, E. K. Dalskov, U. Ekstroem,
       T. Enevoldsen, J. J. Eriksen, P. Ettenhuber, B. Fernandez,
       L. Ferrighi, H. Fliegl, L. Frediani, K. Hald, A. Halkier,
       C. Haettig, H. Heiberg, T. Helgaker, A. C. Hennum,
       H. Hettema, E. Hjertenaes, S. Hoest, I.-M. Hoeyvik,
       M. F. Iozzi, B. Jansik, H. J. Aa. Jensen, D. Jonsson,
       P. Joergensen, J. Kauczor, S. Kirpekar,
       T. Kjaergaard, W. Klopper, S. Knecht, R. Kobayashi, H. Koch,
       J. Kongsted, A. Krapp, K. Kristensen, A. Ligabue,
       O. B. Lutnaes, J. I. Melo, K. V. Mikkelsen, R. H. Myhre,
       C. Neiss, C. B. Nielsen, P. Norman, J. Olsen,
       J. M. H. Olsen, A. Osted, M. J. Packer, F. Pawlowski,
       T. B. Pedersen, P. F. Provasi, S. Reine, Z. Rinkevicius,
       T. A. Ruden, K. Ruud, V. Rybkin, P. Salek, C. C. M. Samson,
       A. Sanchez de Meras, T. Saue, S. P. A. Sauer,
       B. Schimmelpfennig, K. Sneskov, A. H. Steindal,
       K. O. Sylvester-Hvid, P. R. Taylor, A. M. Teale,
       E. I. Tellgren, D. P. Tew, A. J. Thorvaldsen, L. Thoegersen,
       O. Vahtras, M. A. Watson, D. J. D. Wilson, M. Ziolkowski
       and H. Agren,
       "The Dalton quantum chemistry program system",
       WIREs Comput. Mol. Sci. 2014, 4:269–284 (doi: 10.1002/wcms.1172)
     
    and
     
       Dalton, a molecular electronic structure program,
       Release Dalton2020.0.beta (2020), see http://daltonprogram.org
   ----------------------------------------------------------------------------

    Authors in alphabetical order (major contribution(s) in parenthesis):

  Kestutis Aidas,           Vilnius University,           Lithuania   (QM/MM)
  Celestino Angeli,         University of Ferrara,        Italy       (NEVPT2)
  Keld L. Bak,              UNI-C,                        Denmark     (AOSOPPA, non-adiabatic coupling, magnetic properties)
  Vebjoern Bakken,          University of Oslo,           Norway      (DALTON; geometry optimizer, symmetry detection)
  Radovan Bast,             UiT The Arctic U. of Norway,  Norway      (DALTON installation and execution frameworks)
  Pablo Baudin,             University of Valencia,       Spain       (Cholesky excitation energies)
  Linus Boman,              NTNU,                         Norway      (Cholesky decomposition and subsystems)
  Ove Christiansen,         Aarhus University,            Denmark     (CC module)
  Renzo Cimiraglia,         University of Ferrara,        Italy       (NEVPT2)
  Sonia Coriani,            Technical Univ. of Denmark,   Denmark     (CC module, MCD in RESPONS)
  Janusz Cukras,            University of Trieste,        Italy       (MChD in RESPONS)
  Paal Dahle,               University of Oslo,           Norway      (Parallelization)
  Erik K. Dalskov,          UNI-C,                        Denmark     (SOPPA)
  Thomas Enevoldsen,        Univ. of Southern Denmark,    Denmark     (SOPPA)
  Janus J. Eriksen,         Aarhus University,            Denmark     (Polarizable embedding model, TDA)
  Rasmus Faber,             University of Copenhagen,     Denmark     (Vib.avg. NMR with SOPPA, parallel AO-SOPPA)
  Tobias Fahleson,          KTH Stockholm,                Sweden      (Damped cubic response)
  Berta Fernandez,          U. of Santiago de Compostela, Spain       (doublet spin, ESR in RESPONS)
  Lara Ferrighi,            Aarhus University,            Denmark     (PCM Cubic response)
  Heike Fliegl,             University of Oslo,           Norway      (CCSD(R12))
  Luca Frediani,            UiT The Arctic U. of Norway,  Norway      (PCM)
  Bin Gao,                  UiT The Arctic U. of Norway,  Norway      (Gen1Int library)
  Christof Haettig,         Ruhr-University Bochum,       Germany     (CC module)
  Kasper Hald,              Aarhus University,            Denmark     (CC module)
  Asger Halkier,            Aarhus University,            Denmark     (CC module)
  Frederik Beyer Hansen,    University of Copenhagen,     Denmark     (Parallel AO-SOPPA)
  Erik D. Hedegaard,        Univ. of Southern Denmark,    Denmark     (Polarizable embedding model, QM/MM)
  Hanne Heiberg,            University of Oslo,           Norway      (geometry analysis, selected one-electron integrals)
  Trygve Helgaker,          University of Oslo,           Norway      (DALTON; ABACUS, ERI, DFT modules, London, and much more)
  Alf Christian Hennum,     University of Oslo,           Norway      (Parity violation)
  Hinne Hettema,            University of Auckland,       New Zealand (quadratic response in RESPONS; SIRIUS supersymmetry)
  Eirik Hjertenaes,         NTNU,                         Norway      (Cholesky decomposition)
  Pi A. B. Haase,           University of Copenhagen,     Denmark     (Triplet AO-SOPPA)
  Maria Francesca Iozzi,    University of Oslo,           Norway      (RPA)
  Christoph Jacob           TU Braunschweig               Germany     (Frozen density embedding model)
  Brano Jansik              Technical Univ. of Ostrava    Czech Rep.  (DFT cubic response)
  Hans Joergen Aa. Jensen,  Univ. of Southern Denmark,    Denmark     (DALTON; SIRIUS, RESPONS, ABACUS modules, London, and much more)
  Dan Jonsson,              UiT The Arctic U. of Norway,  Norway      (cubic response in RESPONS module)
  Poul Joergensen,          Aarhus University,            Denmark     (RESPONS, ABACUS, and CC modules)
  Maciej Kaminski,          University of Warsaw,         Poland      (CPPh in RESPONS)
  Joanna Kauczor,           Linkoeping University,        Sweden      (Complex polarization propagator (CPP) module)
  Sheela Kirpekar,          Univ. of Southern Denmark,    Denmark     (Mass-velocity & Darwin integrals)
  Wim Klopper,              KIT Karlsruhe,                Germany     (R12 code in CC, SIRIUS, and ABACUS modules)
  Stefan Knecht,            ETH Zurich,                   Switzerland (Parallel CI and MCSCF)
  Rika Kobayashi,           Australian National Univ.,    Australia   (DIIS in CC, London in MCSCF)
  Henrik Koch,              NTNU,                         Norway      (CC module, Cholesky decomposition)
  Jacob Kongsted,           Univ. of Southern Denmark,    Denmark     (Polarizable embedding model, QM/MM)
  Andrea Ligabue,           University of Modena,         Italy       (CTOCD, AOSOPPA)
  Nanna H. List             Univ. of Southern Denmark,    Denmark     (Polarizable embedding model)
  Ola B. Lutnaes,           University of Oslo,           Norway      (DFT Hessian)
  Juan I. Melo,             University of Buenos Aires,   Argentina   (LRESC, Relativistic Effects on NMR Shieldings)
  Kurt V. Mikkelsen,        University of Copenhagen,     Denmark     (MC-SCRF and QM/MM)
  Rolf H. Myhre,            NTNU,                         Norway      (Subsystems and CC3)
  Christian Neiss,          Univ. Erlangen-Nuernberg,     Germany     (CCSD(R12))
  Christian B. Nielsen,     University of Copenhagen,     Denmark     (QM/MM)
  Patrick Norman,           KTH Stockholm,                Sweden      (Cubic response and complex frequency response in RESPONS)
  Jeppe Olsen,              Aarhus University,            Denmark     (SIRIUS CI/density modules)
  Jogvan Magnus H. Olsen,   Univ. of Southern Denmark,    Denmark     (Polarizable embedding model, QM/MM)
  Anders Osted,             Copenhagen University,        Denmark     (QM/MM)
  Martin J. Packer,         University of Sheffield,      UK          (SOPPA)
  Filip Pawlowski,          Kazimierz Wielki University,  Poland      (CC3)
  Morten N. Pedersen,       Univ. of Southern Denmark,    Denmark     (Polarizable embedding model)
  Thomas B. Pedersen,       University of Oslo,           Norway      (Cholesky decomposition)
  Patricio F. Provasi,      University of Northeastern,   Argentina   (Analysis of coupling constants in localized orbitals)
  Zilvinas Rinkevicius,     KTH Stockholm,                Sweden      (open-shell DFT, ESR)
  Elias Rudberg,            KTH Stockholm,                Sweden      (DFT grid and basis info)
  Torgeir A. Ruden,         University of Oslo,           Norway      (Numerical derivatives in ABACUS)
  Kenneth Ruud,             UiT The Arctic U. of Norway,  Norway      (DALTON; ABACUS magnetic properties and much more)
  Pawel Salek,              KTH Stockholm,                Sweden      (DALTON; DFT code)
  Claire C. M. Samson       University of Karlsruhe       Germany     (Boys localization, r12 integrals in ERI)
  Alfredo Sanchez de Meras, University of Valencia,       Spain       (CC module, Cholesky decomposition)
  Trond Saue,               Paul Sabatier University,     France      (direct Fock matrix construction)
  Stephan P. A. Sauer,      University of Copenhagen,     Denmark     (SOPPA(CCSD), SOPPA prop., AOSOPPA, vibrational g-factors)
  Andre S. P. Gomes,        CNRS/Universite de Lille,     France      (Frozen density embedding model)
  Bernd Schimmelpfennig,    Forschungszentrum Karlsruhe,  Germany     (AMFI module)
  Anna K. Schnack-Petersen, University of Copenhagen,     Denmark     (RPA(D) and HRPA(D) properties in AOSOPPA)
  Kristian Sneskov,         Aarhus University,            Denmark     (Polarizable embedding model, QM/MM)
  Arnfinn H. Steindal,      UiT The Arctic U. of Norway,  Norway      (parallel QM/MM, Polarizable embedding model)
  Casper Steinmann,         Univ. of Southern Denmark,    Denmark     (QFIT, Polarizable embedding model)
  K. O. Sylvester-Hvid,     University of Copenhagen,     Denmark     (MC-SCRF)
  Peter R. Taylor,          VLSCI/Univ. of Melbourne,     Australia   (Symmetry handling ABACUS, integral transformation)
  Andrew M. Teale,          University of Nottingham,     England     (DFT-AC, DFT-D)
  David P. Tew,             University of Bristol,        England     (CCSD(R12))
  Olav Vahtras,             KTH Stockholm,                Sweden      (triplet response, spin-orbit, ESR, TDDFT, open-shell DFT)
  Lucas Visscher,           Vrije Universiteit Amsterdam, Netherlands (Frozen density embedding model)
  David J. Wilson,          La Trobe University,          Australia   (DFT Hessian and DFT magnetizabilities)
  Hans Agren,               KTH Stockholm,                Sweden      (SIRIUS module, RESPONS, MC-SCRF solvation model)
 --------------------------------------------------------------------------------

     Date and time (Linux)  : Wed Oct 14 16:26:12 2020
     Host name              : loke                                    

 * Work memory size             :    64000000 =  488.28 megabytes.

 * Directories for basis set searches:
   1) /home/reinholdt/Downloads
   2) /home/reinholdt/Programs/dalton/build/basis


Compilation information
-----------------------

 Who compiled             | reinholdt
 Host                     | loke
 System                   | Linux-5.8.12-arch1-1
 CMake generator          | Unix Makefiles
 Processor                | x86_64
 64-bit integers          | OFF
 MPI                      | ON
 Fortran compiler         | /usr/bin/mpif90
 Fortran compiler version | GNU Fortran (GCC) 10.2.0
 C compiler               | /usr/bin/mpicc
 C compiler version       | gcc (GCC) 10.2.0
 C++ compiler             | /usr/bin/mpicxx
 C++ compiler version     | unknown
 BLAS                     | /opt/intel/mkl/lib/intel64/libmkl_gf_lp64.so;/opt/
                          | intel/mkl/lib/intel64/libmkl_sequential.so;/opt/in
                          | tel/mkl/lib/intel64/libmkl_core.so;/usr/lib/libpth
                          | read.so;/usr/lib/libm.so
 LAPACK                   | /opt/intel/mkl/lib/intel64/libmkl_lapack95_lp64.a;
                          | /opt/intel/mkl/lib/intel64/libmkl_gf_lp64.so
 Static linking           | OFF
 Last Git revision        | af4f8e788d141fab09ab915c4046b52f3b9ae7c9
 Git branch               | fix-dft-ghost-grids
 Configuration time       | 2020-10-14 16:25:59.026328

 * MPI parallel run using 4 processes.


   Content of the .dal input file
 ----------------------------------

**DALTON INPUT
.RUN WAVE FUNCTION
.DIRECT
**INTEGRALS
.NOSUP
.PRINT
    1
**WAVE FUNCTIONS
.DFT
PBE0
.INTERFACE
*AUXILIARY INPUT
.NOSUPMAT
*ORBITALS
.AO DELETE
 1.0E-6
.CMOMAX
 1000.0
*DFT INPUT
! .CKS
.DFTELS
0.01
.DFTAC
MULTPOLE
TANH
 0.51500  0.51500 3.0 4.0
.RADINT
1.0E-13
.ANGINT
35
*SCF INPUT
.THRESH
1.0D-8
*ORBITAL INPUT
*END OF INPUT


   Content of the .mol file
 ----------------------------

INTGRL
  OC with ClF
  Basis is aug-cc-pVTZ and type DC
Spherical  Atomtypes=4  Charge=0 Integrals=1.0D-16 Nosymmetry
!
!
! OC
!
Charge=  8.0  Atoms=1 Blocks=4 1 1 1 1
O                0.00000000         0.00000000         2.12210748
!
! O: aug-cc-pVTZ
!  [5s,4p,3d,2f]
!
!
!  S functions
F  11    5
 15330.00000   0.000508  -0.000115   0.000000   0.000000   0.000000
  2299.00000   0.003929  -0.000895   0.000000   0.000000   0.000000
   522.40000   0.020243  -0.004636   0.000000   0.000000   0.000000
   147.30000   0.079181  -0.018724   0.000000   0.000000   0.000000
    47.55000   0.230687  -0.058463   0.000000   0.000000   0.000000
    16.76000   0.433118  -0.136463   0.000000   0.000000   0.000000
     6.20700   0.350260  -0.175740   0.000000   0.000000   0.000000
     1.75200   0.042728   0.160934   1.000000   0.000000   0.000000
     0.68820  -0.008154   0.603418   0.000000   0.000000   0.000000
     0.23840   0.002381   0.378765   0.000000   1.000000   0.000000
     0.07376   0.000000   0.000000   0.000000   0.000000   1.000000
!
!  P functions
F   6    4
    34.46000   0.015928   0.000000   0.000000   0.000000
     7.74900   0.099740   0.000000   0.000000   0.000000
     2.28000   0.310492   0.000000   0.000000   0.000000
     0.71560   0.491026   1.000000   0.000000   0.000000
     0.21400   0.336337   0.000000   1.000000   0.000000
     0.05974   0.000000   0.000000   0.000000   1.000000
!
!  D functions
F   3    3
     2.31400   1.000000   0.000000   0.000000
     0.64500   0.000000   1.000000   0.000000
     0.21400   0.000000   0.000000   1.000000
!
!  F functions
F   2    2
     1.42800   1.000000   0.000000
     0.50000   0.000000   1.000000
!
Charge=  6.0  Atoms=1 Blocks=4 1 1 1 1
C                0.00000000         0.00000000         0.00000000
!
! BASIS="aug-cc-pVTZ"
! C: [5s,4p,3d,2f]
!
!
!  S functions
F  11    5
  8236.00000   0.000531  -0.000113   0.000000   0.000000   0.000000
  1235.00000   0.004108  -0.000878   0.000000   0.000000   0.000000
   280.80000   0.021087  -0.004540   0.000000   0.000000   0.000000
    79.27000   0.081853  -0.018133   0.000000   0.000000   0.000000
    25.59000   0.234817  -0.055760   0.000000   0.000000   0.000000
     8.99700   0.434401  -0.126895   0.000000   0.000000   0.000000
     3.31900   0.346129  -0.170352   0.000000   0.000000   0.000000
     0.90590   0.039378   0.140382   1.000000   0.000000   0.000000
     0.36430  -0.008983   0.598684   0.000000   0.000000   0.000000
     0.12850   0.002385   0.395389   0.000000   1.000000   0.000000
     0.04402   0.000000   0.000000   0.000000   0.000000   1.000000
!
!  P functions
F   6    4
    18.71000   0.014031   0.000000   0.000000   0.000000
     4.13300   0.086866   0.000000   0.000000   0.000000
     1.20000   0.290216   0.000000   0.000000   0.000000
     0.38270   0.501008   1.000000   0.000000   0.000000
     0.12090   0.343406   0.000000   1.000000   0.000000
     0.03569   0.000000   0.000000   0.000000   1.000000
!
!  D functions
F   3    3
     1.09700   1.000000   0.000000   0.000000
     0.31800   0.000000   1.000000   0.000000
     0.10000   0.000000   0.000000   1.000000
!
!  F functions
F   2    2
     0.76100   1.000000   0.000000
     0.26800   0.000000   1.000000
!
!
!
! ClF
!
Charge= 17.0  Atoms=1 Blocks=4 1 1 1 1 Ghost
Cl               0.00000000         0.00000000        -4.72431497
!  aug-cc-pVTZ  EMSL  Basis Set Exchange Library   7/29/13 5:26 AM
! Elements                             References
! --------                             ----------
! H     : T.H. Dunning, Jr. J. Chem. Phys. 90, 1007 (1989).
! He    : D.E. Woon and T.H. Dunning, Jr. J. Chem. Phys. 100, 2975 (1994).
! Li - Ne: T.H. Dunning, Jr. J. Chem. Phys. 90, 1007 (1989).
! Na - Mg: D.E. Woon and T.H. Dunning, Jr.  (to be published)
! Al - Ar: D.E. Woon and T.H. Dunning, Jr.  J. Chem. Phys. 98, 1358 (1993).
! Ca     : J. Koput and K.A. Peterson, J. Phys. Chem. A, 106, 9595 (2002).
! Sc - Zn: N.B. Balabanov and K.A. Peterson, J. Chem. Phys, 123, 064107 (2005)
! Ga - Kr: A.K. Wilson, D.E. Woon, K.A. Peterson, T.H. Dunning, Jr., J. Chem. Phys., 110, 7667 (1999
!
! Elements                             References
! --------                             ---------
! H    :  T.H. Dunning, Jr. J. Chem. Phys. 90, 1007 (1989).
! He   :  D.E. Woon and T.H. Dunning, Jr., J. Chem. Phys. 100, 2975 (1994).
! B - F:  R.A. Kendall, T.H. Dunning, Jr. and R.J. Harrison, J. Chem. Phys. 96,
! 6796 (1992).
! Al - Cl: D.E. Woon and T.H. Dunning, Jr. J. Chem. Phys. 98, 1358 (1993).
! Sc - Zn: N.B. Balabanov and K.A. Peterson, J. Chem. Phys, 123, 064107 (2005)
!
! Basis = aug-cc-pVTZ
! CHLORINE       (16s,10p,3d,2f) -> [6s,5p,3d,2f]
! CHLORINE       (15s,9p,2d,1f) -> [5s,4p,2d,1f]
! CHLORINE       (1s,1p,1d,1f)
! s functions
H  16    6
   456100.0000000000      0.000049297000     -0.000013830400      0.000004185460
                          0.000000000000      0.000000000000      0.000000000000
    68330.0000000000      0.000383029000     -0.000107279000      0.000032439500
                          0.000000000000      0.000000000000      0.000000000000
    15550.0000000000      0.002008540000     -0.000565083000      0.000171105000
                          0.000000000000      0.000000000000      0.000000000000
     4405.0000000000      0.008385580000     -0.002361350000      0.000714176000
                          0.000000000000      0.000000000000      0.000000000000
     1439.0000000000      0.029470300000     -0.008458860000      0.002567050000
                          0.000000000000      0.000000000000      0.000000000000
      520.4000000000      0.087832500000     -0.025963800000      0.007885520000
                          0.000000000000      0.000000000000      0.000000000000
      203.1000000000      0.211473000000     -0.068636200000      0.021086700000
                          0.000000000000      0.000000000000      0.000000000000
       83.9600000000      0.365364000000     -0.141874000000      0.044226400000
                          0.000000000000      0.000000000000      0.000000000000
       36.2000000000      0.340884000000     -0.199319000000      0.065167000000
                          0.000000000000      0.000000000000      0.000000000000
       15.8300000000      0.102133000000     -0.019566200000      0.006030120000
                          0.000000000000      0.000000000000      0.000000000000
        6.3340000000      0.003116750000      0.499741000000     -0.206495000000
                          0.000000000000      0.000000000000      0.000000000000
        2.6940000000      0.001057510000      0.563736000000     -0.405871000000
                          0.000000000000      0.000000000000      0.000000000000
        0.9768000000      0.000000000000      0.000000000000      0.000000000000
                          1.000000000000      0.000000000000      0.000000000000
        0.4313000000      0.000156136000     -0.008350910000      0.725661000000
                          0.000000000000      0.000000000000      0.000000000000
        0.1625000000      0.000000000000      0.000000000000      0.000000000000
                          0.000000000000      1.000000000000      0.000000000000
        0.0591000000      0.000000000000      0.000000000000      0.000000000000
                          0.000000000000      0.000000000000      1.000000000000
! p functions
H  10    5
      663.3000000000      0.002404480000     -0.000652145000      0.000000000000
                          0.000000000000      0.000000000000
      156.8000000000      0.019214800000     -0.005194450000      0.000000000000
                          0.000000000000      0.000000000000
       49.9800000000      0.088509700000     -0.024693800000      0.000000000000
                          0.000000000000      0.000000000000
       18.4200000000      0.256020000000     -0.072816700000      0.000000000000
                          0.000000000000      0.000000000000
        7.2400000000      0.436927000000     -0.134030000000      0.000000000000
                          0.000000000000      0.000000000000
        2.9220000000      0.350334000000     -0.094774200000      0.000000000000
                          0.000000000000      0.000000000000
        1.0220000000      0.000000000000      0.000000000000      1.000000000000
                          0.000000000000      0.000000000000
        0.3818000000     -0.004584230000      0.564667000000      0.000000000000
                          0.000000000000      0.000000000000
        0.1301000000      0.000000000000      0.000000000000      0.000000000000
                          1.000000000000      0.000000000000
        0.0419000000      0.000000000000      0.000000000000      0.000000000000
                          0.000000000000      1.000000000000
! d functions
H   3    3
        1.0460000000      1.000000000000      0.000000000000      0.000000000000
        0.3440000000      0.000000000000      1.000000000000      0.000000000000
        0.1350000000      0.000000000000      0.000000000000      1.000000000000
! f functions
H   2    2
        0.7060000000      1.000000000000      0.000000000000
        0.3120000000      0.000000000000      1.000000000000
!
Charge=  9.0  Atoms=1 Blocks=4 1 1 1 1 Ghost
F                0.00000000         0.00000000        -7.88369872
! Basis = aug-cc-pVTZ
! FLUORINE       (10s,5p,2d,1f)->[4s,3p,2d,1f]
! FLUORINE       (1s,1p,1d,1f)
! s functions
F  11    5
  19500.0000000  0.0005070 -0.0001170  0.0000000  0.0000000  0.0000000
   2923.0000000  0.0039230 -0.0009120  0.0000000  0.0000000  0.0000000
    664.5000000  0.0202000 -0.0047170  0.0000000  0.0000000  0.0000000
    187.5000000  0.0790100 -0.0190860  0.0000000  0.0000000  0.0000000
     60.6200000  0.2304390 -0.0596550  0.0000000  0.0000000  0.0000000
     21.4200000  0.4328720 -0.1400100  0.0000000  0.0000000  0.0000000
      7.9500000  0.3499640 -0.1767820  0.0000000  0.0000000  0.0000000
      2.2570000  0.0432330  0.1716250  1.0000000  0.0000000  0.0000000
      0.8815000 -0.0078920  0.6050430  0.0000000  0.0000000  0.0000000
      0.3041000  0.0023840  0.3695120  0.0000000  1.0000000  0.0000000
      0.0915800  0.0000000  0.0000000  0.0000000  0.0000000  1.0000000
! p functions
F   6    4
     43.8800000  0.0166650  0.0000000  0.0000000  0.0000000
      9.9260000  0.1044720  0.0000000  0.0000000  0.0000000
      2.9300000  0.3172600  0.0000000  0.0000000  0.0000000
      0.9132000  0.4873430  1.0000000  0.0000000  0.0000000
      0.2672000  0.3346040  0.0000000  1.0000000  0.0000000
      0.0736100  0.0000000  0.0000000  0.0000000  1.0000000
! d functions
F   3    3
      3.1070000  1.0000000  0.0000000  0.0000000
      0.8550000  0.0000000  1.0000000  0.0000000
      0.2920000  0.0000000  0.0000000  1.0000000
! f functions
F   2    2
      1.9170000  1.0000000  0.0000000
      0.7240000  0.0000000  1.0000000
!


       *******************************************************************
       *********** Output from DALTON general input processing ***********
       *******************************************************************

 --------------------------------------------------------------------------------
   Overall default print level:    0
   Print level for DALTON.STAT:    1

    Parallel calculation using MPI
    AO-direct calculation (in sections where implemented)
    HERMIT 1- and 2-electron integral sections will be executed
    "Old" integral transformation used (limited to max 255 basis functions)
    Wave function sections will be executed (SIRIUS module)
 --------------------------------------------------------------------------------


   ****************************************************************************
   *************** Output of molecule and basis set information ***************
   ****************************************************************************


    The two title cards from your ".mol" input:
    ------------------------------------------------------------------------
 1:   OC with ClF                                                           
 2:   Basis is aug-cc-pVTZ and type DC                                      
    ------------------------------------------------------------------------

  INFO from READIN: Threshold for discarding integrals was    1.00D-16
  INFO from READIN: Threshold is reset to minimum value       1.00D-15

  Atomic type no.    1
  --------------------
  Nuclear charge:   8.00000
  Number of symmetry independent centers:    1
  Number of basis sets to read;    2

  Atomic type no.    2
  --------------------
  Nuclear charge:   6.00000
  Number of symmetry independent centers:    1
  Number of basis sets to read;    2

  Atomic type no.    3
  --------------------
  Nuclear charge:  17.00000
  Number of symmetry independent centers:    1
  Number of basis sets to read;    2

  Atomic type no.    4
  --------------------
  Nuclear charge:   9.00000
  Number of symmetry independent centers:    1
  Number of basis sets to read;    2


                         SYMGRP: Point group information
                         -------------------------------

@    Point group: C1 


                                 Isotopic Masses
                                 ---------------

                           O          15.994915
                           C          12.000000
                           Cl          0.000000
                           F           0.000000

                       Total mass:    27.994915 amu
                       Natural abundance:   0.000 %

 Center-of-mass coordinates (a.u.):    0.000000    0.000000    1.212468
 Center-of-mass coordinates (Angs):    0.000000    0.000000    0.641610


  Atoms and basis sets
  --------------------

  Number of atom types :    4
  Total number of atoms:    4

  label    atoms   charge   prim   cont     basis
  ----------------------------------------------------------------------
  O           1    8.0000    58    46      [11s6p3d2f|5s4p3d2f]                               
  C           1    6.0000    58    46      [11s6p3d2f|5s4p3d2f]                               
  Cl          1    0.0000    75    50      [16s10p3d2f|6s5p3d2f]                              
  F           1    0.0000    58    46      [11s6p3d2f|5s4p3d2f]                               
  ----------------------------------------------------------------------
  total:      4   14.0000   249   188
  ----------------------------------------------------------------------
  Spherical harmonic basis used.

  Threshold for neglecting AO integrals:  1.00D-15


  Cartesian Coordinates (a.u.)
  ----------------------------

  Total number of coordinates:   12
  O       :     1  x   0.0000000000    2  y   0.0000000000    3  z   2.1221074800
  C       :     4  x   0.0000000000    5  y   0.0000000000    6  z   0.0000000000
  Cl      :     7  x   0.0000000000    8  y   0.0000000000    9  z  -4.7243149700
  F       :    10  x   0.0000000000   11  y   0.0000000000   12  z  -7.8836987200


   Interatomic separations (in Angstrom):
   --------------------------------------

            O           C           Cl          F     
            ------      ------      ------      ------
 O     :    0.000000
 C     :    1.122971    0.000000
 Cl    :    3.622971    2.500000    0.000000
 F     :    5.294845    4.171874    1.671874    0.000000


  Max    interatomic separation is    5.2948 Angstrom (   10.0058 Bohr)
  between atoms    4 and    1, "F     " and "O     ".

  Min YX interatomic separation is    1.1230 Angstrom (    2.1221 Bohr)


  Bond distances (Angstrom):
  --------------------------

                  atom 1     atom 2       distance
                  ------     ------       --------
  bond distance:  C          O            1.122971


  Bond angles (degrees):
  ----------------------

                  atom 1     atom 2     atom 3         angle
                  ------     ------     ------         -----
     No angles found




 Principal moments of inertia (u*A**2) and principal axes
 --------------------------------------------------------

   IA       0.000000          0.000000    0.000000    1.000000
   IB       8.646116          0.000000    1.000000    0.000000
   IC       8.646116          1.000000    0.000000    0.000000


 Rotational constants
 --------------------

@    The molecule is linear.

               B =        58451.57 MHz     (    1.949734 cm-1)


@  Nuclear repulsion energy :   22.619023990246 Hartree

  Number of floating/multiple basis set orbitals :    2


                     .---------------------------------------.
                     | Starting in Integral Section (HERMIT) |
                     `---------------------------------------'



 ***************************************************************************************
 ****************** Output from **INTEGRALS input processing (HERMIT) ******************
 ***************************************************************************************



    *************************************************************************
    ****************** Output from HERMIT input processing ******************
    *************************************************************************


 Default print level:        1

 Calculation of one-electron Hamiltonian integrals.

 Center of mass  (bohr):      0.000000000000      0.000000000000      1.212467648623
 Operator center (bohr):      0.000000000000      0.000000000000      0.000000000000
 Gauge origin    (bohr):      0.000000000000      0.000000000000      0.000000000000
 Dipole origin   (bohr):      0.000000000000      0.000000000000      0.000000000000


     ************************************************************************
     ************************** Output from HERINT **************************
     ************************************************************************



                      Nuclear contribution to dipole moments
                      --------------------------------------

                 au               Debye          C m (/(10**-30)

      x      0.00000000         0.00000000         0.00000000
      y      0.00000000         0.00000000         0.00000000
      z     16.97685984        43.15087081       143.93581180


  Time used in GABGEN     is       0.16 seconds
  Total CPU  time used in HERMIT:   0.39 seconds
  Total wall time used in HERMIT:   0.39 seconds


                        .----------------------------------.
                        | End of Integral Section (HERMIT) |
                        `----------------------------------'



                   .--------------------------------------------.
                   | Starting in Wave Function Section (SIRIUS) |
                   `--------------------------------------------'



                     +---------------------------------------+
                     ! Asymptotically Corrected XC Potential !
                     +---------------------------------------+



 Interpolation Scheme
 --------------------

      tanh Interpolation               
                                       


 Asymptotic Potential
 --------------------

      Asymp. Pot. From Multipole Exp.  


 Input Ionization Potentials
 ---------------------------

      Alpha IP          0.515
      Beta IP           0.515


 Interpolation Region Definition
 -------------------------------

      Bragg Radius 1    3.000
      Bragg Radius 2    4.000


 Settings for DFT calculation:
 -----------------------------

     Redefined thresholds:                                     1.00D-09    1.00D-10    2.00D-12
     Redefined threshold for number of electrons:              1.00D-02
     DFT radial quadrature accuracy and ang. expansion order:              1.00D-13  35

 *** Output from Huckel module :

     Using EWMO model:          T
     Using EHT  model:          F
     Number of Huckel orbitals each symmetry:   29

 EWMO - Energy Weighted Maximum Overlap - is a Huckel type method,
        which normally is better than Extended Huckel Theory.
 Reference: Linderberg and Ohrn, Propagators in Quantum Chemistry (Wiley, 1973)

 Huckel EWMO eigenvalues for symmetry :  1
          -20.686097     -11.349808      -1.581117      -0.796554      -0.718228
           -0.718228      -0.455149      -0.304872      -0.304872      -0.136174
           -0.000000      -0.000000      -0.000000      -0.000000      -0.000000
           -0.000000      -0.000000      -0.000000       0.000000       0.000000
            0.000000       0.000000       0.000000       0.000000       0.000000
            0.000000       0.000000       0.000000       0.000000

 **********************************************************************
 *SIRIUS* a direct, restricted step, second order MCSCF program       *
 **********************************************************************

 
     Date and time (Linux)  : Wed Oct 14 16:26:13 2020
     Host name              : loke                                    

 Title lines from ".mol" input file:
       OC with ClF                                                           
       Basis is aug-cc-pVTZ and type DC                                      

 Print level on unit LUPRI =   2 is   0
 Print level on unit LUW4  =   2 is   5

@    Restricted, closed shell Kohn-Sham DFT calculation.
 Fock matrices are calculated directly and in parallel without use of integrals on disk.

 Initial molecular orbitals are obtained according to
 ".MOSTART EWMO  " input option

     Wave function specification
     ============================
@    Wave function type        --- KS-DFT ---
@    Number of closed shell electrons          14
@    Number of electrons in active shells       0
@    Total charge of the molecule               0

@    Spin multiplicity and 2 M_S                1         0
@    Total number of symmetries                 1 (point group: C1 )
@    Reference state symmetry                   1 (irrep name : A  )
 
     This is a DFT calculation of type: PBE0
 Weighted mixed functional:
               HF exchange:    0.25000
                      PBEx:    0.75000
                      PBEc:    1.00000

     Orbital specifications
     ======================
@    Abelian symmetry species          All |    1
@                                          |  A  
                                       --- |  ---
@    Occupied SCF orbitals               7 |    7
@    Secondary orbitals                181 |  181
@    Total number of orbitals          188 |  188
@    Number of basis functions         188 |  188

     Optimization information
     ========================
@    Number of configurations                 1
@    Number of orbital rotations           1267
     ------------------------------------------
@    Total number of variables             1268

     Maximum number of Fock   iterations      0
     Maximum number of DIIS   iterations     60
     Maximum number of QC-SCF iterations     60
     Threshold for SCF convergence     1.00D-08
 
     This is a DFT calculation of type: PBE0
 Weighted mixed functional:
               HF exchange:    0.25000
                      PBEx:    0.75000
                      PBEc:    1.00000


 ***********************************************
 ***** DIIS acceleration of SCF iterations *****
 ***********************************************

 C1-DIIS algorithm; max error vectors =    8

 Iter      Total energy        Error norm    Delta(E)  DIIS dim.
 -----------------------------------------------------------------------------
   1  Screening settings (-IFTHRS, JTDIIS, DIFDEN, times)   -8    1    F  3.20D+00  3.20D+00
      K-S energy, electrons, error :    -10.287618612446  13.9999999516   -4.84D-08
@  1    -112.939576159        2.38856D+00   -1.13D+02    1
      Virial theorem: -V/T =      2.010066
@    MULPOP   O      -0.29; C       0.33; 
   1  Level shift: doubly occupied orbital energies shifted by -2.00D-01
      E_HOMO Alpha      -0.700539000243  E_HOMO Beta      -0.700539000243     v_xc(inf)     -0.185539000243
      E_LUMO Alpha      -0.139020077142  E_LUMO Beta      -0.139020077142
 -----------------------------------------------------------------------------
   2  Screening settings (-IFTHRS, JTDIIS, DIFDEN, times)   -9    2    F  3.26D+00  3.26D+00
      K-S energy, electrons, error :    -10.511916876213  13.9999999656   -3.44D-08
@  2    -113.190790411        9.46657D-01   -2.51D-01    2
      Virial theorem: -V/T =      1.998115
@    MULPOP   O       0.08; C      -0.11; 
   2  Level shift: doubly occupied orbital energies shifted by -1.00D-01
      E_HOMO Alpha      -0.469922629645  E_HOMO Beta      -0.469922629645     v_xc(inf)      0.045077370355
      E_LUMO Alpha      -0.056564472166  E_LUMO Beta      -0.056564472166
 -----------------------------------------------------------------------------
   3  Screening settings (-IFTHRS, JTDIIS, DIFDEN, times)   -9    3    F  3.24D+00  3.24D+00
      K-S energy, electrons, error :    -10.460437529748  13.9999999615   -3.85D-08
@  3    -113.222018604        3.39125D-01   -3.12D-02    3
      Virial theorem: -V/T =      2.003141
@    MULPOP   O      -0.23; C       0.22; 
   3  Level shift: doubly occupied orbital energies shifted by -5.00D-02
      E_HOMO Alpha      -0.445068091145  E_HOMO Beta      -0.445068091145     v_xc(inf)      0.069931908855
      E_LUMO Alpha      -0.033813741269  E_LUMO Beta      -0.033813741269
 -----------------------------------------------------------------------------
   4  Screening settings (-IFTHRS, JTDIIS, DIFDEN, times)  -10    4    F  3.65D+00  3.66D+00
      K-S energy, electrons, error :    -10.400609396815  13.9999999574   -4.26D-08
@  4    -113.223307711        3.01583D-01   -1.29D-03    4
      Virial theorem: -V/T =      2.008001
@    MULPOP   O      -0.06; C       0.05; 
   4  Level shift: doubly occupied orbital energies shifted by -5.00D-02
      E_HOMO Alpha      -0.448595925531  E_HOMO Beta      -0.448595925531     v_xc(inf)      0.066404074469
      E_LUMO Alpha      -0.032406466269  E_LUMO Beta      -0.032406466269
 -----------------------------------------------------------------------------
   5  Screening settings (-IFTHRS, JTDIIS, DIFDEN, times)  -10    5    F  3.31D+00  3.31D+00
      K-S energy, electrons, error :    -10.433800949228  13.9999999583   -4.17D-08
@  5    -113.227136588        2.67200D-02   -3.83D-03    5
      Virial theorem: -V/T =      2.005102
@    MULPOP   O      -0.13; C       0.11; 
   5  Level shift: doubly occupied orbital energies shifted by -1.25D-02
      E_HOMO Alpha      -0.407774201015  E_HOMO Beta      -0.407774201015     v_xc(inf)      0.107225798985
      E_LUMO Alpha      -0.029444113092  E_LUMO Beta      -0.029444113092
 -----------------------------------------------------------------------------
   6  Screening settings (-IFTHRS, JTDIIS, DIFDEN, times)  -11    6    F  3.29D+00  3.29D+00
      K-S energy, electrons, error :    -10.434559552220  13.9999999584   -4.16D-08
@  6    -113.227197310        1.61020D-02   -6.07D-05    6
      Virial theorem: -V/T =      2.005124
@    MULPOP   O      -0.14; C       0.12; 
   6  Level shift: doubly occupied orbital energies shifted by -1.25D-02
      E_HOMO Alpha      -0.407775993324  E_HOMO Beta      -0.407775993324     v_xc(inf)      0.107224006676
      E_LUMO Alpha      -0.029463859008  E_LUMO Beta      -0.029463859008
 -----------------------------------------------------------------------------
   7  Screening settings (-IFTHRS, JTDIIS, DIFDEN, times)  -11    7    F  3.15D+00  3.48D+00
      K-S energy, electrons, error :    -10.434598562701  13.9999999584   -4.16D-08
@  7    -113.227196900        1.63370D-02    4.11D-07    7

!!! Info: DIIS restarted because it was stalled ...
 - energy changed by    4.105E-07
 - gradient changed by  2.350E-04
 - or strange C vector coeff. for current index (=  7) :
   -0.002319   -0.008445    0.078018    0.090521    1.145463  -38.811367   38.508128

! Backstep to previous Fock matrix because energy increased.
      Virial theorem: -V/T =      2.005124
@    MULPOP   O      -0.14; C       0.12; 
   7  Level shift: doubly occupied orbital energies shifted by -1.25D-02
      E_HOMO Alpha      -0.407943181714  E_HOMO Beta      -0.407943181714     v_xc(inf)      0.107056818286
      E_LUMO Alpha      -0.026230642212  E_LUMO Beta      -0.026230642212
 -----------------------------------------------------------------------------
   8  Screening settings (-IFTHRS, JTDIIS, DIFDEN, times)  -11    2    F  3.38D+00  3.38D+00
      K-S energy, electrons, error :    -10.435734197095  13.9999999583   -4.17D-08
@  8    -113.227212880        1.08500D-02   -1.60D-05    2
      Virial theorem: -V/T =      2.005099
@    MULPOP   O      -0.12; C       0.10; 
   8  Level shift: doubly occupied orbital energies shifted by -1.25D-02
      E_HOMO Alpha      -0.406516259277  E_HOMO Beta      -0.406516259277     v_xc(inf)      0.108483740723
      E_LUMO Alpha      -0.025357015609  E_LUMO Beta      -0.025357015609
 -----------------------------------------------------------------------------
   9  Screening settings (-IFTHRS, JTDIIS, DIFDEN, times)  -11    3    F  3.34D+00  3.35D+00
      K-S energy, electrons, error :    -10.436830998515  13.9999999584   -4.16D-08
@  9    -113.227213204        1.08470D-02   -3.24D-07    3
      Virial theorem: -V/T =      2.005012
@    MULPOP   O      -0.13; C       0.11; 
   9  Level shift: doubly occupied orbital energies shifted by -1.25D-02
      E_HOMO Alpha      -0.406323321199  E_HOMO Beta      -0.406323321199     v_xc(inf)      0.108676678801
      E_LUMO Alpha      -0.024956390625  E_LUMO Beta      -0.024956390625
 -----------------------------------------------------------------------------
  10  Screening settings (-IFTHRS, JTDIIS, DIFDEN, times)  -11    4    F  3.32D+00  3.32D+00
      K-S energy, electrons, error :    -10.435672256528  13.9999999584   -4.16D-08
@ 10    -113.227217320        1.49731D-03   -4.12D-06    4
      Virial theorem: -V/T =      2.005114
@    MULPOP   O      -0.13; C       0.11; 
      E_HOMO Alpha      -0.393996510129  E_HOMO Beta      -0.393996510129     v_xc(inf)      0.121003489871
      E_LUMO Alpha      -0.025067640257  E_LUMO Beta      -0.025067640257
 -----------------------------------------------------------------------------
  11  Screening settings (-IFTHRS, JTDIIS, DIFDEN, times)  -12    5    F  2.62D+00  3.64D+00
      K-S energy, electrons, error :    -10.435943032336  13.9999999584   -4.16D-08
@ 11    -113.227216669        4.23785D-03    6.51D-07    5
      Virial theorem: -V/T =      2.005090
@    MULPOP   O      -0.13; C       0.11; 
      E_HOMO Alpha      -0.393789591623  E_HOMO Beta      -0.393789591623     v_xc(inf)      0.121210408377
      E_LUMO Alpha      -0.024517848955  E_LUMO Beta      -0.024517848955
 -----------------------------------------------------------------------------
  12  Screening settings (-IFTHRS, JTDIIS, DIFDEN, times)  -11    6    F  3.33D+00  3.33D+00
      K-S energy, electrons, error :    -10.436215729928  13.9999999584   -4.16D-08
@ 12    -113.227211065        1.93710D-03    5.60D-06    6
      Virial theorem: -V/T =      2.005080
@    MULPOP   O      -0.12; C       0.11; 
      E_HOMO Alpha      -0.393637107838  E_HOMO Beta      -0.393637107838     v_xc(inf)      0.121362892162
      E_LUMO Alpha      -0.024118832078  E_LUMO Beta      -0.024118832078
 -----------------------------------------------------------------------------
  13  Screening settings (-IFTHRS, JTDIIS, DIFDEN, times)  -12    7    F  3.31D+00  3.31D+00
      K-S energy, electrons, error :    -10.436419015292  13.9999999584   -4.16D-08
@ 13    -113.227205436        2.05797D-04    5.63D-06    7
      Virial theorem: -V/T =      2.005072
@    MULPOP   O      -0.12; C       0.11; 
      E_HOMO Alpha      -0.393614300190  E_HOMO Beta      -0.393614300190     v_xc(inf)      0.121385699810
      E_LUMO Alpha      -0.024064674696  E_LUMO Beta      -0.024064674696
 -----------------------------------------------------------------------------
  14  Screening settings (-IFTHRS, JTDIIS, DIFDEN, times)  -13    8    F  3.61D+00  3.61D+00
      K-S energy, electrons, error :    -10.436448271210  13.9999999584   -4.16D-08
@ 14    -113.227204579        3.12937D-05    8.57D-07    8
      Virial theorem: -V/T =      2.005071
@    MULPOP   O      -0.12; C       0.11; 
      E_HOMO Alpha      -0.393617008792  E_HOMO Beta      -0.393617008792     v_xc(inf)      0.121382991208
      E_LUMO Alpha      -0.024071726011  E_LUMO Beta      -0.024071726011
 -----------------------------------------------------------------------------
  15  Screening settings (-IFTHRS, JTDIIS, DIFDEN, times)  -14    9    F  3.38D+00  3.38D+00
      K-S energy, electrons, error :    -10.436444568198  13.9999999584   -4.16D-08
@ 15    -113.227204696        5.98168D-07   -1.17D-07    8
      Virial theorem: -V/T =      2.005071
@    MULPOP   O      -0.12; C       0.11; 
      E_HOMO Alpha      -0.393617020494  E_HOMO Beta      -0.393617020494     v_xc(inf)      0.121382979506
      E_LUMO Alpha      -0.024071752249  E_LUMO Beta      -0.024071752249
 -----------------------------------------------------------------------------
  16  Screening settings (-IFTHRS, JTDIIS, DIFDEN, times)  -15   10    F  3.48D+00  3.48D+00
      K-S energy, electrons, error :    -10.436444524960  13.9999999584   -4.16D-08
@ 16    -113.227204696        5.46284D-07   -5.81D-10    8
      Virial theorem: -V/T =      2.005071
@    MULPOP   O      -0.12; C       0.11; 
      E_HOMO Alpha      -0.393616963244  E_HOMO Beta      -0.393616963244     v_xc(inf)      0.121383036756
      E_LUMO Alpha      -0.024071612747  E_LUMO Beta      -0.024071612747
 -----------------------------------------------------------------------------
  17  Screening settings (-IFTHRS, JTDIIS, DIFDEN, times)  -15   11    F  3.37D+00  3.37D+00
      K-S energy, electrons, error :    -10.436444595249  13.9999999584   -4.16D-08
@ 17    -113.227204694        7.20519D-08    2.24D-09    8
      Virial theorem: -V/T =      2.005071
@    MULPOP   O      -0.12; C       0.11; 
      E_HOMO Alpha      -0.393616968528  E_HOMO Beta      -0.393616968528     v_xc(inf)      0.121383031472
      E_LUMO Alpha      -0.024071625781  E_LUMO Beta      -0.024071625781
 -----------------------------------------------------------------------------
  18  Screening settings (-IFTHRS, JTDIIS, DIFDEN, times)  -15   12    F  3.33D+00  3.33D+00
      K-S energy, electrons, error :    -10.436444590354  13.9999999584   -4.16D-08
@ 18    -113.227204694        1.76476D-08   -1.99D-10    8
      Virial theorem: -V/T =      2.005071
@    MULPOP   O      -0.12; C       0.11; 
      E_HOMO Alpha      -0.393616970191  E_HOMO Beta      -0.393616970191     v_xc(inf)      0.121383029809
      E_LUMO Alpha      -0.024071629743  E_LUMO Beta      -0.024071629743
 -----------------------------------------------------------------------------
  19  Screening settings (-IFTHRS, JTDIIS, DIFDEN, times)  -15   13    F  3.39D+00  3.39D+00
      K-S energy, electrons, error :    -10.436444588228  13.9999999584   -4.16D-08
@ 19    -113.227204694        3.09340D-09   -6.31D-11    8

@ *** DIIS converged in  19 iterations !
@     Converged SCF energy, gradient:   -113.227204694493    3.09D-09
    - total time used in SIRFCK :              0.00 seconds


 *** SCF orbital energy analysis ***

 Only the 20 lowest virtual orbital energies printed in each symmetry.

 Number of electrons :   14
 Orbital occupations :    7

 Sym       Kohn-Sham orbital energies

1 A     -19.31780517   -10.34272026    -1.20125731    -0.59928413    -0.49718285
         -0.49718285    -0.39361697    -0.02407163    -0.02407163     0.04684641
          0.07498213     0.08477785     0.08477785     0.12744061     0.14028100
          0.14028100     0.16395179     0.20104714     0.20104714     0.20502843
          0.22610733     0.22741358     0.22741365     0.28241878     0.28753568
          0.28753568     0.32382311

    E(LUMO) :    -0.02407163 au (symmetry 1)
  - E(HOMO) :    -0.39361697 au (symmetry 1)
  ------------------------------------------
    gap     :     0.36954534 au

 --- Writing SIRIFC interface file

 CPU and wall time for SCF :      90.461      91.895


                       .-----------------------------------.
                       | --- Final results from SIRIUS --- |
                       `-----------------------------------'


@    Spin multiplicity:           1
@    Spatial symmetry:            1 ( irrep  A   in C1  )
@    Total charge of molecule:    0

@    Final DFT energy:           -113.227204694493                 
@    Nuclear repulsion:            22.619023990246
@    Electronic energy:          -135.846228684738

@    Final gradient norm:           0.000000003093

 
     Date and time (Linux)  : Wed Oct 14 16:27:45 2020
     Host name              : loke                                    

File label for MO orbitals:  14Oct20   FOCKDIIS

 (Only coefficients > 0.0100 are printed.)

 Molecular orbitals for symmetry species 1  (A  )
 ------------------------------------------------

    Orbital         1        2        3        4        5        6        7
   1 O   :1s    -0.9964   0.0004  -0.0173   0.0007  -0.0000  -0.0000  -0.0026
   2 O   :1s     0.0009   0.0027   0.7969   0.4895  -0.0000   0.0000  -0.0739
   4 O   :1s    -0.0064  -0.0230  -0.0982   0.1407  -0.0000   0.0000   0.0438
   5 O   :1s    -0.0008  -0.0170  -0.0063   0.0507  -0.0000   0.0000   0.0456
   6 O   :2px    0.0000   0.0000  -0.0000   0.0000   0.7618  -0.2974   0.0000
   7 O   :2py   -0.0000  -0.0000  -0.0000   0.0000   0.2974   0.7618  -0.0000
   8 O   :2pz    0.0034  -0.0029  -0.2708   0.7350  -0.0000   0.0000   0.4152
   9 O   :2px   -0.0000  -0.0000   0.0000  -0.0000  -0.0156   0.0061  -0.0000
  10 O   :2py    0.0000   0.0000   0.0000  -0.0000  -0.0061  -0.0156   0.0000
  11 O   :2pz   -0.0002   0.0075   0.0218  -0.0380  -0.0000  -0.0000  -0.0247
  12 O   :2px   -0.0000   0.0000  -0.0000  -0.0000  -0.0315   0.0123   0.0000
  13 O   :2py    0.0000  -0.0000  -0.0000  -0.0000  -0.0123  -0.0315  -0.0000
  14 O   :2pz   -0.0026   0.0225   0.1124  -0.1089   0.0000  -0.0000  -0.0922
  15 O   :2px   -0.0000   0.0000  -0.0000   0.0000   0.0192  -0.0075   0.0000
  16 O   :2py   -0.0000   0.0000   0.0000  -0.0000   0.0075   0.0192  -0.0000
  17 O   :2pz   -0.0004   0.0046   0.0126   0.0040   0.0000  -0.0000  -0.0083
  20 O   :3d0   -0.0005   0.0002   0.0079  -0.0101   0.0000  -0.0000  -0.0056
  24 O   :3d1-  -0.0000   0.0000  -0.0000   0.0000  -0.0100  -0.0255   0.0000
  25 O   :3d0    0.0003  -0.0054   0.0139  -0.0170   0.0000  -0.0000  -0.0041
  26 O   :3d1+   0.0000  -0.0000  -0.0000  -0.0000  -0.0255   0.0100  -0.0000
  30 O   :3d0    0.0018  -0.0072  -0.0201   0.0069  -0.0000   0.0000   0.0236
  47 C   :1s    -0.0003   1.0031  -0.0249   0.0100  -0.0000  -0.0000  -0.0084
  48 C   :1s    -0.0012   0.0282   0.4188  -0.5601   0.0000   0.0000   0.5799
  49 C   :1s    -0.0015   0.0101   0.0036  -0.0083   0.0000  -0.0000  -0.0027
  50 C   :1s     0.0056   0.0134  -0.1221   0.0753   0.0000  -0.0000   0.1400
  51 C   :1s    -0.0002   0.0106   0.0057  -0.0272  -0.0000  -0.0000   0.0344
  52 C   :2px   -0.0000   0.0000   0.0000   0.0000   0.4690  -0.1831  -0.0000
  53 C   :2py   -0.0000   0.0000   0.0000  -0.0000   0.1831   0.4690  -0.0000
  54 C   :2pz   -0.0023   0.0106   0.3574  -0.1989   0.0000  -0.0000  -0.7103
  55 C   :2px    0.0000  -0.0000   0.0000  -0.0000  -0.0392   0.0153   0.0000
  56 C   :2py   -0.0000   0.0000  -0.0000   0.0000  -0.0153  -0.0392   0.0000
  57 C   :2pz    0.0037   0.0089  -0.0540   0.0259  -0.0000  -0.0000   0.0524
  58 C   :2px   -0.0000  -0.0000   0.0000   0.0000  -0.0953   0.0372  -0.0000
  59 C   :2py    0.0000  -0.0000   0.0000   0.0000  -0.0372  -0.0953   0.0000
  60 C   :2pz    0.0059  -0.0088  -0.1607   0.1129   0.0000   0.0000   0.1680
  65 C   :3d1-  -0.0000   0.0000  -0.0000  -0.0000   0.0092   0.0235  -0.0000
  66 C   :3d0    0.0004   0.0034   0.0249  -0.0111   0.0000  -0.0000  -0.0247
  67 C   :3d1+   0.0000  -0.0000   0.0000   0.0000   0.0235  -0.0092  -0.0000
  70 C   :3d1-  -0.0000   0.0000   0.0000   0.0000   0.0119   0.0305   0.0000
  71 C   :3d0    0.0026   0.0004   0.0140   0.0032  -0.0000  -0.0000  -0.0176
  72 C   :3d1+   0.0000  -0.0000   0.0000   0.0000   0.0305  -0.0119   0.0000
  76 C   :3d0    0.0011   0.0005  -0.0132  -0.0090  -0.0000   0.0000   0.0157
  89 C   :4f0    0.0004  -0.0029  -0.0095   0.0136   0.0000  -0.0000   0.0142
  97 Cl  :1s    -0.0006  -0.0028  -0.0046   0.0177   0.0000  -0.0000   0.0070
  98 Cl  :1s     0.0012  -0.0124  -0.0240   0.0289   0.0000   0.0000   0.0161
 110 Cl  :2pz    0.0003  -0.0009  -0.0049   0.0208  -0.0000  -0.0000  -0.0003

    Orbital         8        9       10       11       12       13       14
   2 O   :1s    -0.0000   0.0000   0.1574   0.1158   0.0000  -0.0000   0.0160
   4 O   :1s     0.0000  -0.0000   0.8749  -0.0469   0.0000   0.0000  -0.2186
   5 O   :1s    -0.0000   0.0000   3.0445  -0.3580   0.0000   0.0000   0.1174
   6 O   :2px    0.2687   0.5009  -0.0000   0.0000  -0.0122   0.0079  -0.0000
   7 O   :2py   -0.5009   0.2687  -0.0000   0.0000  -0.0079  -0.0122  -0.0000
   8 O   :2pz   -0.0000   0.0000   0.1042  -0.0074   0.0000  -0.0000   0.0618
  11 O   :2pz    0.0000  -0.0000  -0.0455   0.0222   0.0000  -0.0000   0.0398
  12 O   :2px    0.0542   0.1011   0.0000  -0.0000  -0.1284   0.0833   0.0000
  13 O   :2py   -0.1011   0.0542   0.0000   0.0000  -0.0833  -0.1284  -0.0000
  14 O   :2pz    0.0000  -0.0000  -0.3120   0.0134  -0.0000  -0.0000  -0.1489
  15 O   :2px    0.1021   0.1903  -0.0000  -0.0000   0.0224  -0.0146   0.0000
  16 O   :2py   -0.1903   0.1021   0.0000   0.0000   0.0146   0.0224   0.0000
  17 O   :2pz    0.0000  -0.0000  -0.5673   0.2452  -0.0000  -0.0000  -0.7506
  24 O   :3d1-  -0.0150   0.0081  -0.0000   0.0000  -0.0012  -0.0018  -0.0000
  25 O   :3d0   -0.0000   0.0000   0.0256  -0.0053   0.0000  -0.0000  -0.0158
  26 O   :3d1+   0.0081   0.0150  -0.0000   0.0000  -0.0018   0.0012  -0.0000
  29 O   :3d1-  -0.0124   0.0067  -0.0000   0.0000   0.0189   0.0291   0.0000
  30 O   :3d0    0.0000   0.0000   0.0191  -0.0306   0.0000  -0.0000   0.0613
  31 O   :3d1+   0.0067   0.0124  -0.0000   0.0000   0.0291  -0.0189  -0.0000
  47 C   :1s     0.0000  -0.0000  -0.0039  -0.0068  -0.0000   0.0000  -0.0224
  48 C   :1s    -0.0000   0.0000   0.1412  -0.1858  -0.0000  -0.0000  -0.2162
  49 C   :1s    -0.0000  -0.0000   0.0114  -0.0046   0.0000   0.0000  -0.0234
  50 C   :1s    -0.0000   0.0000  -1.1694   0.0306  -0.0000  -0.0000  -0.5255
  51 C   :1s     0.0000  -0.0000  -3.4972   2.3711  -0.0000  -0.0000   1.8603
  52 C   :2px   -0.3723  -0.6940  -0.0000  -0.0000   0.3244  -0.2106   0.0000
  53 C   :2py    0.6940  -0.3723   0.0000  -0.0000   0.2106   0.3244   0.0000
  54 C   :2pz    0.0000  -0.0000  -0.1483   0.0745   0.0000   0.0000   0.0319
  55 C   :2px    0.0021   0.0038  -0.0000  -0.0000   0.0107  -0.0070  -0.0000
  56 C   :2py   -0.0038   0.0021  -0.0000   0.0000   0.0070   0.0107  -0.0000
  57 C   :2pz    0.0000   0.0000  -0.1347   0.0463  -0.0000  -0.0000   0.0275
  58 C   :2px   -0.1099  -0.2049  -0.0000   0.0000   0.2298  -0.1491  -0.0000
  59 C   :2py    0.2049  -0.1099  -0.0000  -0.0000   0.1491   0.2298   0.0000
  60 C   :2pz   -0.0000   0.0000  -1.0106  -0.1951   0.0000  -0.0000  -0.0773
  61 C   :2px   -0.1273  -0.2373   0.0000   0.0000  -1.0635   0.6902  -0.0000
  62 C   :2py    0.2373  -0.1273  -0.0000  -0.0000  -0.6902  -1.0635   0.0000
  63 C   :2pz    0.0000   0.0000  -0.6514  -1.7299   0.0000   0.0000  -1.0254
  65 C   :3d1-  -0.0106   0.0057  -0.0000  -0.0000   0.0007   0.0011  -0.0000
  67 C   :3d1+   0.0057   0.0106  -0.0000  -0.0000   0.0011  -0.0007  -0.0000
  70 C   :3d1-  -0.0219   0.0118  -0.0000   0.0000   0.0347   0.0534   0.0000
  71 C   :3d0    0.0000  -0.0000  -0.0846   0.0343   0.0000  -0.0000   0.0262
  72 C   :3d1+   0.0118   0.0219  -0.0000   0.0000   0.0534  -0.0347  -0.0000
  75 C   :3d1-  -0.0297   0.0159  -0.0000  -0.0000  -0.0274  -0.0422  -0.0000
  76 C   :3d0   -0.0000   0.0000  -0.3010   0.2641  -0.0000  -0.0000   0.5062
  77 C   :3d1+   0.0159   0.0297   0.0000   0.0000  -0.0422   0.0274  -0.0000
  88 C   :4f1-  -0.0041   0.0022  -0.0000  -0.0000   0.0135   0.0209   0.0000
  89 C   :4f0   -0.0000  -0.0000  -0.0337  -0.0106   0.0000  -0.0000   0.0002
  90 C   :4f1+   0.0022   0.0041  -0.0000   0.0000   0.0209  -0.0135  -0.0000
  94 Cl  :1s    -0.0000  -0.0000   0.0050  -0.0142   0.0000   0.0000   0.0277
  95 Cl  :1s    -0.0000  -0.0000   0.0070  -0.0195   0.0000   0.0000   0.0375
  97 Cl  :1s     0.0000   0.0000   0.0109   0.2697  -0.0000  -0.0000  -0.0941
  98 Cl  :1s     0.0000   0.0000   0.1615  -1.7258   0.0000   0.0000  -3.6743
 101 Cl  :2pz   -0.0000  -0.0000  -0.0059  -0.0029  -0.0000   0.0000   0.0335
 104 Cl  :2pz   -0.0000  -0.0000  -0.0121  -0.0058  -0.0000   0.0000   0.0685
 107 Cl  :2pz    0.0000   0.0000   0.0012   0.0042  -0.0000  -0.0000  -0.0129
 110 Cl  :2pz   -0.0000  -0.0000   0.1072  -0.2939   0.0000  -0.0000  -0.0235
 111 Cl  :2px   -0.0006  -0.0011  -0.0000  -0.0000   0.1626  -0.1055  -0.0000
 112 Cl  :2py    0.0011  -0.0006   0.0000  -0.0000   0.1055   0.1626  -0.0000
 113 Cl  :2pz   -0.0000   0.0000   0.3845  -1.0701   0.0000   0.0000   0.4317
 121 Cl  :3d0    0.0000   0.0000  -0.0052   0.0414  -0.0000  -0.0000   0.0086
 125 Cl  :3d1-  -0.0030   0.0016  -0.0000   0.0000  -0.0113  -0.0174   0.0000
 126 Cl  :3d0    0.0000   0.0000  -0.0727  -0.1304   0.0000  -0.0000  -0.3942
 127 Cl  :3d1+   0.0016   0.0030  -0.0000   0.0000  -0.0174   0.0113  -0.0000
 138 Cl  :4f1-  -0.0017   0.0009   0.0000   0.0000  -0.0071  -0.0109  -0.0000
 139 Cl  :4f0   -0.0000  -0.0000   0.0119  -0.0305   0.0000  -0.0000   0.0058
 140 Cl  :4f1+   0.0009   0.0017  -0.0000  -0.0000  -0.0109   0.0071   0.0000
 146 F   :1s     0.0000  -0.0000   0.0375  -0.0019  -0.0000   0.0000  -0.0023
 147 F   :1s    -0.0000  -0.0000   0.2118  -0.2119  -0.0000   0.0000   1.5722
 153 F   :2pz   -0.0000   0.0000  -0.0023   0.0038   0.0000  -0.0000  -0.0136
 154 F   :2px   -0.0004  -0.0007  -0.0000   0.0000   0.0115  -0.0074  -0.0000
 155 F   :2py    0.0007  -0.0004  -0.0000  -0.0000   0.0074   0.0115   0.0000
 156 F   :2pz   -0.0000  -0.0000   0.0419  -0.0826  -0.0000   0.0000   0.1224
 157 F   :2px    0.0014   0.0027   0.0000   0.0000  -0.0814   0.0528   0.0000
 158 F   :2py   -0.0027   0.0014  -0.0000  -0.0000  -0.0528  -0.0814   0.0000
 159 F   :2pz   -0.0000  -0.0000  -0.0269   0.0920  -0.0000   0.0000   0.7349
 172 F   :3d0   -0.0000  -0.0000  -0.0017  -0.0310  -0.0000   0.0000   0.0476

    Orbital        15       16       17
   2 O   :1s     0.0000  -0.0000   0.0763
   4 O   :1s    -0.0000  -0.0000  -0.1552
   5 O   :1s    -0.0000   0.0000  -0.8868
   6 O   :2px    0.1815   0.0080  -0.0000
   7 O   :2py   -0.0080   0.1815  -0.0000
   8 O   :2pz    0.0000   0.0000  -0.0989
  11 O   :2pz    0.0000  -0.0000  -0.0226
  12 O   :2px   -0.3383  -0.0149   0.0000
  13 O   :2py    0.0149  -0.3383   0.0000
  14 O   :2pz   -0.0000  -0.0000   0.1989
  15 O   :2px   -0.8622  -0.0380   0.0000
  16 O   :2py    0.0380  -0.8622   0.0000
  17 O   :2pz   -0.0000  -0.0000   1.2202
  24 O   :3d1-  -0.0007   0.0154   0.0000
  25 O   :3d0   -0.0000  -0.0000   0.0121
  26 O   :3d1+   0.0154   0.0007  -0.0000
  29 O   :3d1-  -0.0079   0.1781  -0.0000
  31 O   :3d1+   0.1781   0.0079  -0.0000
  42 O   :4f1-   0.0010  -0.0231   0.0000
  44 O   :4f1+  -0.0231  -0.0010   0.0000
  47 C   :1s    -0.0000  -0.0000   0.0148
  48 C   :1s    -0.0000  -0.0000  -0.0358
  50 C   :1s    -0.0000  -0.0000   0.7146
  51 C   :1s     0.0000   0.0000  -2.5061
  52 C   :2px   -0.1230  -0.0054  -0.0000
  53 C   :2py    0.0054  -0.1230  -0.0000
  54 C   :2pz    0.0000   0.0000   0.0914
  55 C   :2px    0.0840   0.0037  -0.0000
  56 C   :2py   -0.0037   0.0840  -0.0000
  57 C   :2pz    0.0000  -0.0000  -0.0502
  58 C   :2px    0.4992   0.0220  -0.0000
  59 C   :2py   -0.0220   0.4992  -0.0000
  60 C   :2pz    0.0000  -0.0000   1.0614
  61 C   :2px   -0.2431  -0.0107  -0.0000
  62 C   :2py    0.0107  -0.2431  -0.0000
  63 C   :2pz   -0.0000  -0.0000   0.4373
  66 C   :3d0   -0.0000  -0.0000   0.0101
  70 C   :3d1-  -0.0050   0.1132  -0.0000
  71 C   :3d0    0.0000  -0.0000   0.0495
  72 C   :3d1+   0.1132   0.0050  -0.0000
  75 C   :3d1-  -0.0151   0.3430  -0.0000
  76 C   :3d0    0.0000   0.0000  -0.5714
  77 C   :3d1+   0.3430   0.0151  -0.0000
  88 C   :4f1-  -0.0033   0.0740   0.0000
  89 C   :4f0    0.0000  -0.0000   0.0896
  90 C   :4f1+   0.0740   0.0033  -0.0000
  94 Cl  :1s     0.0000   0.0000   0.0238
  95 Cl  :1s     0.0000  -0.0000   0.0339
  96 Cl  :1s     0.0000  -0.0000   0.0197
  97 Cl  :1s    -0.0000   0.0000  -0.6983
  98 Cl  :1s    -0.0000  -0.0000   2.5228
  99 Cl  :2px    0.0253   0.0011   0.0000
 100 Cl  :2py   -0.0011   0.0253   0.0000
 102 Cl  :2px    0.0516   0.0023   0.0000
 103 Cl  :2py   -0.0023   0.0516   0.0000
 104 Cl  :2pz    0.0000  -0.0000   0.0116
 105 Cl  :2px   -0.0105  -0.0005   0.0000
 106 Cl  :2py    0.0005  -0.0105  -0.0000
 108 Cl  :2px   -0.2031  -0.0090  -0.0000
 109 Cl  :2py    0.0090  -0.2031  -0.0000
 110 Cl  :2pz    0.0000  -0.0000   1.1981
 111 Cl  :2px    1.3786   0.0608   0.0000
 112 Cl  :2py   -0.0608   1.3786   0.0000
 113 Cl  :2pz    0.0000  -0.0000   2.2532
 121 Cl  :3d0   -0.0000   0.0000  -0.1162
 125 Cl  :3d1-  -0.0048   0.1081   0.0000
 126 Cl  :3d0   -0.0000  -0.0000   0.3423
 127 Cl  :3d1+   0.1081   0.0048   0.0000
 138 Cl  :4f1-   0.0011  -0.0260   0.0000
 139 Cl  :4f0   -0.0000  -0.0000   0.0941
 140 Cl  :4f1+  -0.0260  -0.0011  -0.0000
 144 F   :1s    -0.0000   0.0000  -0.0102
 146 F   :1s    -0.0000  -0.0000   0.0178
 147 F   :1s     0.0000   0.0000   1.2037
 153 F   :2pz   -0.0000   0.0000  -0.0124
 154 F   :2px    0.0642   0.0028   0.0000
 155 F   :2py   -0.0028   0.0642   0.0000
 156 F   :2pz    0.0000  -0.0000   0.2696
 157 F   :2px   -0.1384  -0.0061   0.0000
 158 F   :2py    0.0061  -0.1384  -0.0000
 159 F   :2pz    0.0000   0.0000   0.3986
 171 F   :3d1-  -0.0015   0.0337   0.0000
 172 F   :3d0    0.0000  -0.0000   0.1263
 173 F   :3d1+   0.0337   0.0015   0.0000
 185 F   :4f0    0.0000  -0.0000   0.0153

  Total CPU  time used in SIRIUS :  1 minute  31 seconds
  Total wall time used in SIRIUS :  1 minute  32 seconds

 
     Date and time (Linux)  : Wed Oct 14 16:27:45 2020
     Host name              : loke                                    


                     .---------------------------------------.
                     | End of Wave Function Section (SIRIUS) |
                     `---------------------------------------'

  Total CPU  time used in DALTON:  1 minute  31 seconds
  Total wall time used in DALTON:  1 minute  33 seconds

 
     Date and time (Linux)  : Wed Oct 14 16:27:45 2020
     Host name              : loke                                    
