

     ************************************************************************
     *************** Dalton - An Electronic Structure Program ***************
     ************************************************************************

    This is output from DALTON release Dalton2020.0.beta (2020)
         ( Web site: http://daltonprogram.org )

   ----------------------------------------------------------------------------

    NOTE:
     
    Dalton is an experimental code for the evaluation of molecular
    properties using (MC)SCF, DFT, CI, and CC wave functions.
    The authors accept no responsibility for the performance of
    the code or for the correctness of the results.
     
    The code (in whole or part) is provided under a licence and
    is not to be reproduced for further distribution without
    the written permission of the authors or their representatives.
     
    See the home page "http://daltonprogram.org" for further information.
     
    If results obtained with this code are published,
    the appropriate citations would be both of:
     
       K. Aidas, C. Angeli, K. L. Bak, V. Bakken, R. Bast,
       L. Boman, O. Christiansen, R. Cimiraglia, S. Coriani,
       P. Dahle, E. K. Dalskov, U. Ekstroem,
       T. Enevoldsen, J. J. Eriksen, P. Ettenhuber, B. Fernandez,
       L. Ferrighi, H. Fliegl, L. Frediani, K. Hald, A. Halkier,
       C. Haettig, H. Heiberg, T. Helgaker, A. C. Hennum,
       H. Hettema, E. Hjertenaes, S. Hoest, I.-M. Hoeyvik,
       M. F. Iozzi, B. Jansik, H. J. Aa. Jensen, D. Jonsson,
       P. Joergensen, J. Kauczor, S. Kirpekar,
       T. Kjaergaard, W. Klopper, S. Knecht, R. Kobayashi, H. Koch,
       J. Kongsted, A. Krapp, K. Kristensen, A. Ligabue,
       O. B. Lutnaes, J. I. Melo, K. V. Mikkelsen, R. H. Myhre,
       C. Neiss, C. B. Nielsen, P. Norman, J. Olsen,
       J. M. H. Olsen, A. Osted, M. J. Packer, F. Pawlowski,
       T. B. Pedersen, P. F. Provasi, S. Reine, Z. Rinkevicius,
       T. A. Ruden, K. Ruud, V. Rybkin, P. Salek, C. C. M. Samson,
       A. Sanchez de Meras, T. Saue, S. P. A. Sauer,
       B. Schimmelpfennig, K. Sneskov, A. H. Steindal,
       K. O. Sylvester-Hvid, P. R. Taylor, A. M. Teale,
       E. I. Tellgren, D. P. Tew, A. J. Thorvaldsen, L. Thoegersen,
       O. Vahtras, M. A. Watson, D. J. D. Wilson, M. Ziolkowski
       and H. Agren,
       "The Dalton quantum chemistry program system",
       WIREs Comput. Mol. Sci. 2014, 4:269–284 (doi: 10.1002/wcms.1172)
     
    and
     
       Dalton, a molecular electronic structure program,
       Release Dalton2020.0.beta (2020), see http://daltonprogram.org
   ----------------------------------------------------------------------------

    Authors in alphabetical order (major contribution(s) in parenthesis):

  Kestutis Aidas,           Vilnius University,           Lithuania   (QM/MM)
  Celestino Angeli,         University of Ferrara,        Italy       (NEVPT2)
  Keld L. Bak,              UNI-C,                        Denmark     (AOSOPPA, non-adiabatic coupling, magnetic properties)
  Vebjoern Bakken,          University of Oslo,           Norway      (DALTON; geometry optimizer, symmetry detection)
  Radovan Bast,             UiT The Arctic U. of Norway,  Norway      (DALTON installation and execution frameworks)
  Pablo Baudin,             University of Valencia,       Spain       (Cholesky excitation energies)
  Linus Boman,              NTNU,                         Norway      (Cholesky decomposition and subsystems)
  Ove Christiansen,         Aarhus University,            Denmark     (CC module)
  Renzo Cimiraglia,         University of Ferrara,        Italy       (NEVPT2)
  Sonia Coriani,            Technical Univ. of Denmark,   Denmark     (CC module, MCD in RESPONS)
  Janusz Cukras,            University of Trieste,        Italy       (MChD in RESPONS)
  Paal Dahle,               University of Oslo,           Norway      (Parallelization)
  Erik K. Dalskov,          UNI-C,                        Denmark     (SOPPA)
  Thomas Enevoldsen,        Univ. of Southern Denmark,    Denmark     (SOPPA)
  Janus J. Eriksen,         Aarhus University,            Denmark     (Polarizable embedding model, TDA)
  Rasmus Faber,             University of Copenhagen,     Denmark     (Vib.avg. NMR with SOPPA, parallel AO-SOPPA)
  Tobias Fahleson,          KTH Stockholm,                Sweden      (Damped cubic response)
  Berta Fernandez,          U. of Santiago de Compostela, Spain       (doublet spin, ESR in RESPONS)
  Lara Ferrighi,            Aarhus University,            Denmark     (PCM Cubic response)
  Heike Fliegl,             University of Oslo,           Norway      (CCSD(R12))
  Luca Frediani,            UiT The Arctic U. of Norway,  Norway      (PCM)
  Bin Gao,                  UiT The Arctic U. of Norway,  Norway      (Gen1Int library)
  Christof Haettig,         Ruhr-University Bochum,       Germany     (CC module)
  Kasper Hald,              Aarhus University,            Denmark     (CC module)
  Asger Halkier,            Aarhus University,            Denmark     (CC module)
  Frederik Beyer Hansen,    University of Copenhagen,     Denmark     (Parallel AO-SOPPA)
  Erik D. Hedegaard,        Univ. of Southern Denmark,    Denmark     (Polarizable embedding model, QM/MM)
  Hanne Heiberg,            University of Oslo,           Norway      (geometry analysis, selected one-electron integrals)
  Trygve Helgaker,          University of Oslo,           Norway      (DALTON; ABACUS, ERI, DFT modules, London, and much more)
  Alf Christian Hennum,     University of Oslo,           Norway      (Parity violation)
  Hinne Hettema,            University of Auckland,       New Zealand (quadratic response in RESPONS; SIRIUS supersymmetry)
  Eirik Hjertenaes,         NTNU,                         Norway      (Cholesky decomposition)
  Pi A. B. Haase,           University of Copenhagen,     Denmark     (Triplet AO-SOPPA)
  Maria Francesca Iozzi,    University of Oslo,           Norway      (RPA)
  Christoph Jacob           TU Braunschweig               Germany     (Frozen density embedding model)
  Brano Jansik              Technical Univ. of Ostrava    Czech Rep.  (DFT cubic response)
  Hans Joergen Aa. Jensen,  Univ. of Southern Denmark,    Denmark     (DALTON; SIRIUS, RESPONS, ABACUS modules, London, and much more)
  Dan Jonsson,              UiT The Arctic U. of Norway,  Norway      (cubic response in RESPONS module)
  Poul Joergensen,          Aarhus University,            Denmark     (RESPONS, ABACUS, and CC modules)
  Maciej Kaminski,          University of Warsaw,         Poland      (CPPh in RESPONS)
  Joanna Kauczor,           Linkoeping University,        Sweden      (Complex polarization propagator (CPP) module)
  Sheela Kirpekar,          Univ. of Southern Denmark,    Denmark     (Mass-velocity & Darwin integrals)
  Wim Klopper,              KIT Karlsruhe,                Germany     (R12 code in CC, SIRIUS, and ABACUS modules)
  Stefan Knecht,            ETH Zurich,                   Switzerland (Parallel CI and MCSCF)
  Rika Kobayashi,           Australian National Univ.,    Australia   (DIIS in CC, London in MCSCF)
  Henrik Koch,              NTNU,                         Norway      (CC module, Cholesky decomposition)
  Jacob Kongsted,           Univ. of Southern Denmark,    Denmark     (Polarizable embedding model, QM/MM)
  Andrea Ligabue,           University of Modena,         Italy       (CTOCD, AOSOPPA)
  Nanna H. List             Univ. of Southern Denmark,    Denmark     (Polarizable embedding model)
  Ola B. Lutnaes,           University of Oslo,           Norway      (DFT Hessian)
  Juan I. Melo,             University of Buenos Aires,   Argentina   (LRESC, Relativistic Effects on NMR Shieldings)
  Kurt V. Mikkelsen,        University of Copenhagen,     Denmark     (MC-SCRF and QM/MM)
  Rolf H. Myhre,            NTNU,                         Norway      (Subsystems and CC3)
  Christian Neiss,          Univ. Erlangen-Nuernberg,     Germany     (CCSD(R12))
  Christian B. Nielsen,     University of Copenhagen,     Denmark     (QM/MM)
  Patrick Norman,           KTH Stockholm,                Sweden      (Cubic response and complex frequency response in RESPONS)
  Jeppe Olsen,              Aarhus University,            Denmark     (SIRIUS CI/density modules)
  Jogvan Magnus H. Olsen,   Univ. of Southern Denmark,    Denmark     (Polarizable embedding model, QM/MM)
  Anders Osted,             Copenhagen University,        Denmark     (QM/MM)
  Martin J. Packer,         University of Sheffield,      UK          (SOPPA)
  Filip Pawlowski,          Kazimierz Wielki University,  Poland      (CC3)
  Morten N. Pedersen,       Univ. of Southern Denmark,    Denmark     (Polarizable embedding model)
  Thomas B. Pedersen,       University of Oslo,           Norway      (Cholesky decomposition)
  Patricio F. Provasi,      University of Northeastern,   Argentina   (Analysis of coupling constants in localized orbitals)
  Zilvinas Rinkevicius,     KTH Stockholm,                Sweden      (open-shell DFT, ESR)
  Elias Rudberg,            KTH Stockholm,                Sweden      (DFT grid and basis info)
  Torgeir A. Ruden,         University of Oslo,           Norway      (Numerical derivatives in ABACUS)
  Kenneth Ruud,             UiT The Arctic U. of Norway,  Norway      (DALTON; ABACUS magnetic properties and much more)
  Pawel Salek,              KTH Stockholm,                Sweden      (DALTON; DFT code)
  Claire C. M. Samson       University of Karlsruhe       Germany     (Boys localization, r12 integrals in ERI)
  Alfredo Sanchez de Meras, University of Valencia,       Spain       (CC module, Cholesky decomposition)
  Trond Saue,               Paul Sabatier University,     France      (direct Fock matrix construction)
  Stephan P. A. Sauer,      University of Copenhagen,     Denmark     (SOPPA(CCSD), SOPPA prop., AOSOPPA, vibrational g-factors)
  Andre S. P. Gomes,        CNRS/Universite de Lille,     France      (Frozen density embedding model)
  Bernd Schimmelpfennig,    Forschungszentrum Karlsruhe,  Germany     (AMFI module)
  Anna K. Schnack-Petersen, University of Copenhagen,     Denmark     (RPA(D) and HRPA(D) properties in AOSOPPA)
  Kristian Sneskov,         Aarhus University,            Denmark     (Polarizable embedding model, QM/MM)
  Arnfinn H. Steindal,      UiT The Arctic U. of Norway,  Norway      (parallel QM/MM, Polarizable embedding model)
  Casper Steinmann,         Univ. of Southern Denmark,    Denmark     (QFIT, Polarizable embedding model)
  K. O. Sylvester-Hvid,     University of Copenhagen,     Denmark     (MC-SCRF)
  Peter R. Taylor,          VLSCI/Univ. of Melbourne,     Australia   (Symmetry handling ABACUS, integral transformation)
  Andrew M. Teale,          University of Nottingham,     England     (DFT-AC, DFT-D)
  David P. Tew,             University of Bristol,        England     (CCSD(R12))
  Olav Vahtras,             KTH Stockholm,                Sweden      (triplet response, spin-orbit, ESR, TDDFT, open-shell DFT)
  Lucas Visscher,           Vrije Universiteit Amsterdam, Netherlands (Frozen density embedding model)
  David J. Wilson,          La Trobe University,          Australia   (DFT Hessian and DFT magnetizabilities)
  Hans Agren,               KTH Stockholm,                Sweden      (SIRIUS module, RESPONS, MC-SCRF solvation model)
 --------------------------------------------------------------------------------

     Date and time (Linux)  : Fri Jul 24 11:19:09 2020
     Host name              : gemini                                  

 * Work memory size             :    64000000 =  488.28 megabytes.

 * Directories for basis set searches:
   1) /home/reinholdt/Programs/dalton/build/test/pehf_fmm
   2) /home/reinholdt/Programs/dalton/build/basis


Compilation information
-----------------------

 Who compiled             | reinholdt
 Host                     | gemini
 System                   | Linux-5.4.52-1-lts
 CMake generator          | Unix Makefiles
 Processor                | x86_64
 64-bit integers          | OFF
 MPI                      | ON
 Fortran compiler         | /usr/bin/mpif90
 Fortran compiler version | GNU Fortran (GCC) 10.1.0
 C compiler               | /usr/bin/mpicc
 C compiler version       | gcc (GCC) 10.1.0
 C++ compiler             | /usr/bin/mpicxx
 C++ compiler version     | unknown
 BLAS                     | /lib64/libopenblas.so
 LAPACK                   | /lib64/liblapack.so
 Static linking           | OFF
 Last Git revision        | 0efbef1afd86e4061f6c4078bb1e62bc18c30a39
 Git branch               | pelib_fmm
 Configuration time       | 2020-07-24 11:18:07.601157

 * Sequential calculation.


   Content of the .dal input file
 ----------------------------------

**DALTON
.RUN RESPONSE
.PEQM
*PEQM
.FMM
.FMMTYPE
FMM
.THETA
0.99
.NCRIT
4
.EXPANSION ORDER
2
**WAVE FUNCTIONS
.HF
**RESPONSE
*LINEAR
.DIPLEN
.SINGLE RESIDUE
.ROOTS
4
**END OF


   Content of the .mol file
 ----------------------------

BASIS
STO-3G
Acrolein
------------------------
AtomTypes=3 NoSymmetry Angstrom
Charge=6.0 Atoms=3
C             -0.145335   -0.546770    0.000607
C              1.274009   -0.912471   -0.000167
C              1.630116   -2.207690   -0.000132
Charge=8.0 Atoms=1
O             -0.560104    0.608977    0.000534
Charge=1.0 Atoms=4
H             -0.871904   -1.386459    0.001253
H              2.004448   -0.101417   -0.000710
H              0.879028   -3.000685    0.000484
H              2.675323   -2.516779   -0.000673


       *******************************************************************
       *********** Output from DALTON general input processing ***********
       *******************************************************************

 --------------------------------------------------------------------------------
   Overall default print level:    0
   Print level for DALTON.STAT:    1

    HERMIT 1- and 2-electron integral sections will be executed
    "Old" integral transformation used (limited to max 255 basis functions)
    Wave function sections will be executed (SIRIUS module)
    Dynamic molecular response properties section will be executed (RESPONSE module)
    Environment is modeled using polarizable embedding scheme (PE library)
 --------------------------------------------------------------------------------


   ****************************************************************************
   *************** Output of molecule and basis set information ***************
   ****************************************************************************


    The two title cards from your ".mol" input:
    ------------------------------------------------------------------------
 1: Acrolein                                                                
 2: ------------------------                                                
    ------------------------------------------------------------------------

  Coordinates are entered in Angstrom and converted to atomic units.
          - Conversion factor : 1 bohr = 0.52917721 A

  Atomic type no.    1
  --------------------
  Nuclear charge:   6.00000
  Number of symmetry independent centers:    3
  Number of basis sets to read;    2
  Basis set file used for this atomic type with Z =   6 :
     "/home/reinholdt/Programs/dalton/build/basis/STO-3G"

  Atomic type no.    2
  --------------------
  Nuclear charge:   8.00000
  Number of symmetry independent centers:    1
  Number of basis sets to read;    2
  Basis set file used for this atomic type with Z =   8 :
     "/home/reinholdt/Programs/dalton/build/basis/STO-3G"

  Atomic type no.    3
  --------------------
  Nuclear charge:   1.00000
  Number of symmetry independent centers:    4
  Number of basis sets to read;    2
  Basis set file used for this atomic type with Z =   1 :
     "/home/reinholdt/Programs/dalton/build/basis/STO-3G"


                         SYMGRP: Point group information
                         -------------------------------

@    Point group: C1 


                                 Isotopic Masses
                                 ---------------

                           C          12.000000
                           C          12.000000
                           C          12.000000
                           O          15.994915
                           H           1.007825
                           H           1.007825
                           H           1.007825
                           H           1.007825

                       Total mass:    56.026215 amu
                       Natural abundance:  96.446 %

 Center-of-mass coordinates (a.u.):    0.973773   -1.393790    0.000425
 Center-of-mass coordinates (Angs):    0.515299   -0.737562    0.000225


  Atoms and basis sets
  --------------------

  Number of atom types :    3
  Total number of atoms:    8

  Basis set used is "STO-3G" from the basis set library.

  label    atoms   charge   prim   cont     basis
  ----------------------------------------------------------------------
  C           3    6.0000    15     5      [6s3p|2s1p]                                        
  O           1    8.0000    15     5      [6s3p|2s1p]                                        
  H           4    1.0000     3     1      [3s|1s]                                            
  ----------------------------------------------------------------------
  total:      8   30.0000    72    24
  ----------------------------------------------------------------------

  Threshold for neglecting AO integrals:  1.00D-12


  Cartesian Coordinates (a.u.)
  ----------------------------

  Total number of coordinates:   24
  C       :     1  x  -0.2746433464    2  y  -1.0332455534    3  z   0.0011470638
  C       :     4  x   2.4075280908    5  y  -1.7243202870    6  z  -0.0003155843
  C       :     7  x   3.0804727920    8  y  -4.1719294689    9  z  -0.0002494438
  O       :    10  x  -1.0584431615   11  y   1.1507997464   12  z   0.0010091138
  H       :    13  x  -1.6476597673   14  y  -2.6200277935   15  z   0.0023678268
  H       :    16  x   3.7878577518   17  y  -0.1916503544   18  z  -0.0013417055
  H       :    19  x   1.6611221762   20  y  -5.6704728374   21  z   0.0009146274
  H       :    22  x   5.0556277659   23  y  -4.7560230271   24  z  -0.0012717857


   Interatomic separations (in Angstrom):
   --------------------------------------

            C           C           C           O           H           H     
            ------      ------      ------      ------      ------      ------
 C     :    0.000000
 C     :    1.465700    0.000000
 C     :    2.431231    1.343281    0.000000
 O     :    1.227919    2.383018    3.568007    0.000000
 H     :    1.110397    2.197637    2.633349    2.019650    0.000000
 H     :    2.195429    1.091490    2.139278    2.661125    3.150355    0.000000
 H     :    2.659139    2.125241    1.092234    3.885970    2.381489    3.110036
 H     :    3.440501    2.130137    1.089951    4.498704    3.722962    2.506800

            H           H     
            ------      ------
 H     :    0.000000
 H     :    1.860334    0.000000


  Max    interatomic separation is    4.4987 Angstrom (    8.5013 Bohr)
  between atoms    8 and    4, "H     " and "O     ".

  Min HX interatomic separation is    1.0900 Angstrom (    2.0597 Bohr)

  Min YX interatomic separation is    1.2279 Angstrom (    2.3204 Bohr)


  Bond distances (Angstrom):
  --------------------------

                  atom 1     atom 2       distance
                  ------     ------       --------
  bond distance:  C          C            1.465700
  bond distance:  C          C            1.343281
  bond distance:  O          C            1.227919
  bond distance:  H          C            1.110397
  bond distance:  H          C            1.091490
  bond distance:  H          C            1.092234
  bond distance:  H          C            1.089951


  Bond angles (degrees):
  ----------------------

                  atom 1     atom 2     atom 3         angle
                  ------     ------     ------         -----
  bond angle:     C          C          O            124.190
  bond angle:     C          C          H            116.421
  bond angle:     O          C          H            119.389
  bond angle:     C          C          C            119.821
  bond angle:     C          C          H            117.558
  bond angle:     C          C          H            122.621
  bond angle:     C          C          H            121.182
  bond angle:     C          C          H            121.847
  bond angle:     H          C          H            116.971




 Principal moments of inertia (u*A**2) and principal axes
 --------------------------------------------------------

   IA      10.696865         -0.668732    0.743503    0.000230
   IB     108.794831          0.743503    0.668732   -0.000587
   IC     119.491696          0.000590    0.000221    1.000000


 Rotational constants
 --------------------

@    The molecule is planar.

               A                   B                   C

          47245.5253           4645.2483           4229.4069 MHz
            1.575941            0.154949            0.141078 cm-1


@  Nuclear repulsion energy :  102.664846860515 Hartree

  Reading potential input file for polarizable embedding calculation

    .------------------------------------------------.
    | Information from polarizable embedding library |
    `------------------------------------------------´

      Number of classical sites:     10

      Multipole moments upto 3rd order.

      Dipole-dipole polarizabilities.

      Iterative solver for induced moments will be used
      with convergence threshold: 1.0E-08
      Total charge of classical region:    0.0000
 


                     .---------------------------------------.
                     | Starting in Integral Section (HERMIT) |
                     `---------------------------------------'



 ***************************************************************************************
 ****************** Output from **INTEGRALS input processing (HERMIT) ******************
 ***************************************************************************************


 - Using defaults, no **INTEGRALS input found

 Default print level:        1

 Calculation of one- and two-electron Hamiltonian integrals.

 Center of mass  (bohr):      0.973773359129     -1.393789716280      0.000424788898
 Operator center (bohr):      0.000000000000      0.000000000000      0.000000000000
 Gauge origin    (bohr):      0.000000000000      0.000000000000      0.000000000000
 Dipole origin   (bohr):      0.000000000000      0.000000000000      0.000000000000

Calculation of 2-electron integrals are postoned until they are needed.


     ************************************************************************
     ************************** Output from HERINT **************************
     ************************************************************************



                      Nuclear contribution to dipole moments
                      --------------------------------------

                 au               Debye          C m (/(10**-30)

      x     31.66954785        80.49595632       268.50560837
      y    -45.60874790      -115.92586657      -386.68706791
      z      0.01223409         0.03109595         0.10372491


  Total CPU  time used in HERMIT:   0.02 seconds
  Total wall time used in HERMIT:   0.02 seconds


                        .----------------------------------.
                        | End of Integral Section (HERMIT) |
                        `----------------------------------'



                   .--------------------------------------------.
                   | Starting in Wave Function Section (SIRIUS) |
                   `--------------------------------------------'


 *** Output from Huckel module :

     Using EWMO model:          T
     Using EHT  model:          F
     Number of Huckel orbitals each symmetry:   24

 EWMO - Energy Weighted Maximum Overlap - is a Huckel type method,
        which normally is better than Extended Huckel Theory.
 Reference: Linderberg and Ohrn, Propagators in Quantum Chemistry (Wiley, 1973)

 Huckel EWMO eigenvalues for symmetry :  1
          -20.684561     -11.357400     -11.351264     -11.346036      -1.724840
           -1.477979      -1.046134      -1.031570      -0.744448      -0.729231
           -0.672044      -0.551742      -0.540543      -0.516178      -0.438809
           -0.319925      -0.220785      -0.162868      -0.131432      -0.129120
           -0.123435      -0.114530      -0.093199      -0.085427

 **********************************************************************
 *SIRIUS* a direct, restricted step, second order MCSCF program       *
 **********************************************************************

 
     Date and time (Linux)  : Fri Jul 24 11:19:09 2020
     Host name              : gemini                                  

 Title lines from ".mol" input file:
     Acrolein                                                                
     ------------------------                                                

 Print level on unit LUPRI =   2 is   0
 Print level on unit LUW4  =   2 is   5

@    Restricted, closed shell Hartree-Fock calculation.

@    Time-dependent Hartree-Fock calculation (random phase approximation).

 Initial molecular orbitals are obtained according to
 ".MOSTART EWMO  " input option

@    QM part is embedded in an environment :

@         Model: PE

     Wave function specification
     ============================

     Wave function environment is modeled using the
     polarizable embedding model (PE library).

@    Wave function type        --- PE-HF ---
@    Number of closed shell electrons          30
@    Number of electrons in active shells       0
@    Total charge of the molecule               0

@    Spin multiplicity and 2 M_S                1         0
@    Total number of symmetries                 1 (point group: C1 )
@    Reference state symmetry                   1 (irrep name : A  )

     Orbital specifications
     ======================
@    Abelian symmetry species          All |    1
@                                          |  A  
                                       --- |  ---
@    Occupied SCF orbitals              15 |   15
@    Secondary orbitals                  9 |    9
@    Total number of orbitals           24 |   24
@    Number of basis functions          24 |   24

     Optimization information
     ========================
@    Number of configurations                 1
@    Number of orbital rotations            135
     ------------------------------------------
@    Total number of variables              136

     Maximum number of Fock   iterations      0
     Maximum number of DIIS   iterations     60
     Maximum number of QC-SCF iterations     60
     Threshold for SCF convergence     1.00D-05


 ***********************************************
 ***** DIIS acceleration of SCF iterations *****
 ***********************************************

 C1-DIIS algorithm; max error vectors =    8

 Iter      Total energy     Embedding energy      Error norm     Delta(E)
 -----------------------------------------------------------------------------

Calculating AOSUPINT

---> (Re)generating AOTWOINT


     ************************************************************************
     ************************** Output from HERINT **************************
     ************************************************************************


 Threshold for neglecting two-electron integrals:  1.00D-12
 HERMIT - Number of two-electron integrals written:       43383 ( 96.1% )
 HERMIT - Megabytes written:                              0.502

  Time used in TWOINT     is       0.10 seconds
  CPU  time used in MAKE_AOTWOINT is   0.10 seconds
  WALL time used in MAKE_AOTWOINT is   0.11 seconds
     (Precalculated AO two-electron integrals are transformed to P-supermatrix elements.
      Threshold for discarding integrals :  1.00D-12 )
@  1  -187.948011292     -4.819843512618E-02    2.01334D+00   -1.88D+02
      Virial theorem: -V/T =      2.003054
@    MULPOP   C       0.93; C       0.24; C       0.42; O      -1.03; H      -0.16; H      -0.14; H      -0.12; H      -0.13; 
   1  Level shift: doubly occupied orbital energies shifted by -2.00D-01
 -----------------------------------------------------------------------------
@  2  -188.277767359     -9.020633577558E-03    7.40598D-01   -3.30D-01
      Virial theorem: -V/T =      2.009161
@    MULPOP   C      -0.14; C      -0.12; C      -0.12; O       0.05; H       0.05; H       0.11; H       0.09; H       0.09; 
   2  Level shift: doubly occupied orbital energies shifted by -1.00D-01
 -----------------------------------------------------------------------------
@  3  -188.315306915     -1.872001904088E-02    1.08720D-01   -3.75D-02
      Virial theorem: -V/T =      2.007948
@    MULPOP   C       0.16; C      -0.10; C      -0.11; O      -0.26; H       0.05; H       0.10; H       0.08; H       0.08; 
   3  Level shift: doubly occupied orbital energies shifted by -2.50D-02
 -----------------------------------------------------------------------------
@  4  -188.317068219     -1.908973946402E-02    3.06608D-02   -1.76D-03
      Virial theorem: -V/T =      2.007869
@    MULPOP   C       0.14; C      -0.10; C      -0.09; O      -0.27; H       0.07; H       0.10; H       0.07; H       0.08; 
   4  Level shift: doubly occupied orbital energies shifted by -1.25D-02
 -----------------------------------------------------------------------------
@  5  -188.317245212     -1.902531423427E-02    1.15059D-02   -1.77D-04
      Virial theorem: -V/T =      2.007836
@    MULPOP   C       0.14; C      -0.09; C      -0.10; O      -0.27; H       0.07; H       0.10; H       0.07; H       0.08; 
 -----------------------------------------------------------------------------
@  6  -188.317264650     -1.903216200459E-02    2.95886D-03   -1.94D-05
      Virial theorem: -V/T =      2.007837
@    MULPOP   C       0.14; C      -0.09; C      -0.09; O      -0.27; H       0.07; H       0.10; H       0.07; H       0.08; 
 -----------------------------------------------------------------------------
@  7  -188.317266346     -1.902174809608E-02    1.03892D-03   -1.70D-06
      Virial theorem: -V/T =      2.007840
@    MULPOP   C       0.14; C      -0.09; C      -0.10; O      -0.27; H       0.07; H       0.10; H       0.07; H       0.08; 
 -----------------------------------------------------------------------------
@  8  -188.317266510     -1.901959867719E-02    3.21657D-04   -1.64D-07
      Virial theorem: -V/T =      2.007841
@    MULPOP   C       0.14; C      -0.09; C      -0.10; O      -0.27; H       0.07; H       0.10; H       0.07; H       0.08; 
 -----------------------------------------------------------------------------
@  9  -188.317266528     -1.901813138283E-02    5.66705D-05   -1.79D-08
      Virial theorem: -V/T =      2.007841
@    MULPOP   C       0.14; C      -0.09; C      -0.10; O      -0.27; H       0.07; H       0.10; H       0.07; H       0.08; 
 -----------------------------------------------------------------------------
@ 10  -188.317266528     -1.901791193134E-02    1.03091D-05   -5.50D-10
      Virial theorem: -V/T =      2.007841
@    MULPOP   C       0.14; C      -0.09; C      -0.10; O      -0.27; H       0.07; H       0.10; H       0.07; H       0.08; 
 -----------------------------------------------------------------------------
@ 11  -188.317266528     -1.901786897867E-02    4.74955D-06   -2.45D-11

@ *** DIIS converged in  11 iterations !
@     Converged SCF energy, gradient:   -188.317266528301    4.75D-06
    - total time used in SIRFCK :              0.00 seconds


 *** SCF orbital energy analysis ***
   (incl. contribution from polarizable embedding potential)

 Number of electrons :   30
 Orbital occupations :   15

 Sym       Hartree-Fock orbital energies

1 A     -20.28690579   -11.13921316   -11.05497391   -11.04580935    -1.34222807
         -1.02314054    -0.82778237    -0.73586535    -0.61597605    -0.60463554
         -0.52268878    -0.50326427    -0.47812071    -0.36239058    -0.32515188
          0.20473016     0.38371338     0.59650799     0.62675235     0.65999316
          0.73812298     0.84261626     0.92742047     1.03994782

    E(LUMO) :     0.20473016 au (symmetry 1)
  - E(HOMO) :    -0.32515188 au (symmetry 1)
  ------------------------------------------
    gap     :     0.52988203 au

    .--------------------------------------------------.
    | Final results from polarizable embedding library |
    `--------------------------------------------------´

        Polarizable embedding energy contributions:
       ---------------------------------------------

       Electrostatic contributions:
            Electronic                -0.467189400871
            Nuclear                    0.448807800596
            Multipole                  0.000000000000
            Total                     -0.018381600275

       Polarization contributions:
            Electronic                -0.035581031306
            Nuclear                    0.034795948747
            Multipole                  0.000148813854
            Total                     -0.000636268704

       Total PE energy:               -0.019017868979
            (excl. multipole-multipole interaction energy)

 --- Writing SIRIFC interface file


                           +---------------------------+
                           ! Writing FOCKMAT in siropt !
                           +---------------------------+


 CPU and wall time for SCF :       0.580       0.623


                       .-----------------------------------.
                       | --- Final results from SIRIUS --- |
                       `-----------------------------------'


@    Spin multiplicity:           1
@    Spatial symmetry:            1 ( irrep  A   in C1  )
@    Total charge of molecule:    0

@    Final HF energy:            -188.317266528301                 
@    Nuclear repulsion:           102.664846860515
@    Electronic energy:          -290.963095519838
@    Embedding energy:             -0.019017868979

@    Final gradient norm:           0.000004749547

 
     Date and time (Linux)  : Fri Jul 24 11:19:10 2020
     Host name              : gemini                                  

File label for MO orbitals:  24Jul20   FOCKDIIS

 (Only coefficients > 0.0100 are printed.)

 Molecular orbitals for symmetry species 1  (A  )
 ------------------------------------------------

    Orbital         1        2        3        4        5        6        7
   1 C   :1s    -0.0005  -0.9926   0.0004   0.0013   0.1234  -0.0656   0.1392
   2 C   :1s     0.0071  -0.0332  -0.0000  -0.0065  -0.2836   0.1852  -0.4283
   3 C   :2px   -0.0021  -0.0003  -0.0001  -0.0043   0.0477   0.1137  -0.1058
   4 C   :2py    0.0059  -0.0005   0.0002   0.0011  -0.1463  -0.0899   0.1305
   6 C   :1s     0.0000   0.0004   0.0394   0.9914   0.0213  -0.1794   0.0531
   7 C   :1s    -0.0003   0.0061  -0.0062   0.0366  -0.0515   0.4698  -0.1580
   8 C   :2px    0.0000  -0.0040  -0.0012  -0.0004   0.0282  -0.0164   0.1812
   9 C   :2py   -0.0006   0.0013   0.0043  -0.0016  -0.0077  -0.0928  -0.1653
  11 C   :1s    -0.0000   0.0003   0.9916  -0.0388   0.0045  -0.1572  -0.1474
  12 C   :1s    -0.0001  -0.0001   0.0353  -0.0091  -0.0107   0.4161   0.4325
  13 C   :2px   -0.0001  -0.0000  -0.0004   0.0013   0.0023  -0.0398   0.0556
  14 C   :2py   -0.0000   0.0000   0.0012  -0.0045  -0.0055   0.1050  -0.0567
  16 O   :1s    -0.9943  -0.0002   0.0000  -0.0000   0.2184   0.0460  -0.0787
  17 O   :1s    -0.0260   0.0058  -0.0001   0.0003  -0.7670  -0.1798   0.3405
  18 O   :2px   -0.0019   0.0007  -0.0000   0.0002  -0.0542   0.0216  -0.0697
  19 O   :2py    0.0052  -0.0016   0.0001  -0.0001   0.1484  -0.0078   0.1119
  21 H   :1s    -0.0002   0.0065  -0.0001   0.0001  -0.0318   0.0479  -0.1540
  22 H   :1s     0.0002  -0.0000  -0.0002  -0.0067  -0.0082   0.0990  -0.0509
  23 H   :1s     0.0000   0.0001  -0.0067   0.0004  -0.0019   0.0983   0.1508
  24 H   :1s     0.0000   0.0001  -0.0067   0.0004  -0.0011   0.0901   0.1895

    Orbital         8        9       10       11       12       13       14
   1 C   :1s    -0.0909   0.0075   0.0547   0.0044   0.0290  -0.0000  -0.0049
   2 C   :1s     0.2955  -0.0221  -0.1856  -0.0101  -0.1108   0.0001   0.0177
   3 C   :2px   -0.2396  -0.3744   0.0225   0.0873  -0.1999   0.0004   0.2008
   4 C   :2py   -0.1716  -0.1152  -0.2332  -0.3689   0.0751   0.0004   0.0582
   5 C   :2pz    0.0003   0.0003   0.0001   0.0003   0.0003   0.5624  -0.0002
   6 C   :1s     0.1078  -0.0313  -0.0342   0.0047  -0.0184   0.0000  -0.0359
   7 C   :1s    -0.3318   0.1031   0.0974  -0.0025   0.0804  -0.0000   0.1573
   8 C   :2px   -0.1325   0.3076  -0.0780  -0.0566   0.2258   0.0001  -0.3135
   9 C   :2py   -0.1451  -0.0723  -0.2771   0.3252   0.2493  -0.0001   0.0575
  10 C   :2pz    0.0001  -0.0001   0.0001   0.0001  -0.0001   0.2911  -0.0000
  11 C   :1s    -0.0569   0.0159   0.0142   0.0232   0.0106  -0.0000   0.0069
  12 C   :1s     0.1778  -0.0652  -0.0631  -0.0647  -0.0296   0.0000  -0.0215
  13 C   :2px   -0.0488   0.1930  -0.3274   0.1922  -0.3523   0.0001   0.0733
  14 C   :2py   -0.1708   0.2756   0.2274  -0.2835  -0.2263   0.0002  -0.0641
  15 C   :2pz    0.0001  -0.0002   0.0001   0.0000   0.0003   0.1867  -0.0002
  16 O   :1s     0.0421   0.0010  -0.0748  -0.0566   0.0110   0.0000  -0.0014
  17 O   :1s    -0.1930  -0.0070   0.3818   0.3144  -0.0635  -0.0002   0.0095
  18 O   :2px   -0.1245  -0.3468  -0.2216  -0.1866  -0.2253   0.0005  -0.7922
  19 O   :2py   -0.1721  -0.1251   0.3541   0.4958  -0.1823  -0.0000  -0.2834
  20 O   :2pz    0.0001   0.0003   0.0001   0.0003   0.0004   0.5784   0.0007
  21 H   :1s     0.2761   0.2004   0.0382   0.2023   0.0100  -0.0002  -0.3536
  22 H   :1s    -0.2440   0.1540  -0.1391   0.1752   0.3459  -0.0002  -0.1250
  23 H   :1s     0.1769  -0.2786   0.0211   0.0446   0.3827  -0.0001  -0.0586
  24 H   :1s     0.0719   0.0533  -0.3224   0.2079  -0.2834   0.0000   0.1041

    Orbital        15       16       17       18       19       20       21
   1 C   :1s    -0.0000   0.0000   0.0000   0.0142  -0.1917   0.0176  -0.0006
   2 C   :1s     0.0000  -0.0000  -0.0001  -0.0881   1.1840  -0.1138   0.0214
   3 C   :2px    0.0001  -0.0003  -0.0004  -0.3384   0.0345  -0.0617  -0.8906
   4 C   :2py    0.0001  -0.0001  -0.0002  -0.2793  -0.4583   0.1677  -0.2489
   5 C   :2pz    0.1686  -0.5375  -0.6704   0.0003   0.0000  -0.0000   0.0006
   6 C   :1s     0.0000  -0.0000  -0.0000   0.0515   0.1061   0.0122  -0.1869
   7 C   :1s    -0.0000  -0.0000   0.0000  -0.3175  -0.6265  -0.0477   1.2334
   8 C   :2px   -0.0002  -0.0002   0.0004  -0.5131   0.4222  -0.1283   0.0044
   9 C   :2py   -0.0001  -0.0001   0.0001  -0.3427  -0.2332   0.2850   0.2007
  10 C   :2pz   -0.5663  -0.3992   0.7307   0.0003  -0.0002   0.0000  -0.0000
  11 C   :1s    -0.0000   0.0000   0.0000  -0.0042  -0.0387  -0.2035   0.0529
  12 C   :1s     0.0000  -0.0000  -0.0000   0.0117   0.2262   1.3027  -0.3331
  13 C   :2px   -0.0004   0.0004  -0.0003  -0.6029   0.3040   0.0475  -0.0078
  14 C   :2py   -0.0001   0.0001  -0.0001  -0.1970  -0.0362  -0.4671  -0.4166
  15 C   :2pz   -0.5857   0.6324  -0.5306   0.0004  -0.0002   0.0001   0.0001
  16 O   :1s     0.0000   0.0000  -0.0000  -0.0178   0.0224   0.0101   0.0040
  17 O   :1s    -0.0001  -0.0000   0.0000   0.1246  -0.1271  -0.0744  -0.0284
  18 O   :2px    0.0005   0.0004   0.0003   0.1657  -0.0370  -0.0319   0.2194
  19 O   :2py    0.0002   0.0001   0.0000  -0.1107   0.1901   0.0786   0.1262
  20 O   :2pz    0.4120   0.5832   0.4470  -0.0001   0.0000  -0.0000  -0.0001
  21 H   :1s     0.0001   0.0001   0.0001  -0.3598  -0.9174   0.1873  -0.6370
  22 H   :1s     0.0000   0.0000   0.0000   0.8180   0.2522  -0.0676  -0.6991
  23 H   :1s     0.0000  -0.0000  -0.0000  -0.5801   0.1111  -0.9322  -0.0671
  24 H   :1s    -0.0000   0.0000   0.0000   0.5291  -0.4410  -0.8055   0.0776

    Orbital        22       23       24
   1 C   :1s    -0.1183   0.0249  -0.0388
   2 C   :1s     0.7780  -0.1792   0.2557
   3 C   :2px   -0.1854  -0.6836  -0.1194
   4 C   :2py    0.6541   0.2357   0.8368
   6 C   :1s     0.0535   0.0303  -0.0695
   7 C   :1s    -0.3751  -0.2460   0.5462
   8 C   :2px    0.1993  -0.9720  -0.1121
   9 C   :2py    0.4629   0.3087  -1.0295
  11 C   :1s    -0.0307  -0.0449   0.0840
  12 C   :1s     0.2253   0.3342  -0.6639
  13 C   :2px   -0.6953   0.5636   0.3681
  14 C   :2py    0.4005   0.6967  -0.7163
  16 O   :1s     0.0883   0.0264   0.0682
  17 O   :1s    -0.6329  -0.1999  -0.5182
  18 O   :2px   -0.2580   0.0464  -0.2003
  19 O   :2py    0.6637   0.2387   0.4942
  21 H   :1s    -0.0793  -0.1648   0.2454
  22 H   :1s    -0.2403   0.4032   0.3749
  23 H   :1s    -0.2208   0.5471   0.0473
  24 H   :1s     0.5319  -0.3792  -0.1526

  Total CPU  time used in SIRIUS :   0.58 seconds
  Total wall time used in SIRIUS :   0.63 seconds

 
     Date and time (Linux)  : Fri Jul 24 11:19:10 2020
     Host name              : gemini                                  


                     .---------------------------------------.
                     | End of Wave Function Section (SIRIUS) |
                     `---------------------------------------'



                 .------------------------------------------------.
                 | Starting in Dynamic Property Section (RESPONS) |
                 `------------------------------------------------'


 ----------------------------------------------------------------------------------------
  RESPONSE  -  an MCSCF, MC-srDFT, DFT, SOPPA and SOPPA-srDFT response property program
 ----------------------------------------------------------------------------------------


 -------- OUTPUT FROM RESPONSE INPUT PROCESSING --------




  Linear Response single residue calculation
 -------------------------------------------

 Environment is modeled using the polarizable embedding scheme (PE library)

    3 input options by user.

 Print level                                    : IPRPP  =   2
 Maximum number of iterations for eigenval.eqs. : MAXITP =  60
 Threshold for convergence of eigenvalue eqs.   : THCPP  = 1.000D-03
 Maximum iterations in optimal orbital algorithm: MAXITO =   5

      4 Excitation energies are calculated for symmetry no.    1

      3 property residues are calculated with labels:

               XDIPLEN 
               YDIPLEN 
               ZDIPLEN 

 INFO SIR_INTOPEN, old integral transformation not found as expected, ICASE = 2
 - ICASE = 1: MO integral file MOTWOINT does not exist
 - ICASE = 2: no MO integrals on MOTWOINT
 - ICASE = 3: transformation level on MOTWOINT not sufficient

 2-el. integral transformation level 4: Total CPU and WALL times (sec)       0.021       0.023

 Sorting integrals to Dirac format: Total CPU and WALL times (sec)       0.002       0.002


   SCF energy         :     -188.317266528301332
 -- inactive part     :     -290.963095519837850
 -- nuclear repulsion :      102.664846860515169


                     ***************************************
                     *** RHF response calculation (TDHF) ***
                     ***************************************

 Environment is modeled using the polarizable embedding scheme (PE library)
 ----------------------------------------------------------------
 ----- Linear response calculation
 ----- Symmetry of excitation/property operator(s)    1  ( A  )
 ----------------------------------------------------------------

 Number of excitations of this symmetry            4
 Number of response properties of this symmetry    0
 Number of C6/C8 properties of this symmetry       0


 Perturbation symmetry.     KSYMOP:           1
 Perturbation spin symmetry.TRPLET:           F
 Orbital variables.         KZWOPT:         135
 Configuration variables.   KZCONF:           0
 Total number of variables. KZVAR :         135
 Electrons in DFTMOMO:   30.00000600832002



 --- EXCITATION ENERGIES AND TRANSITION MOMENT CALCULATION (MCTDHF) ---

 Operator symmetry = 1  ( A  ); triplet =   F


 ** RSPCTL MICROITERATION NUMBER    1

      Root  Residual tot.,    conf., and orb.    Bnorm      Eigenvalue
      ----------------------------------------------------------------
         1    1.97062D-01  0.00D+00  1.97D-01  7.08D-01    2.21923D-01
         2    3.42349D-01  0.00D+00  3.42D-01  7.21D-01    3.56191D-01
         3    1.39998D-01  0.00D+00  1.40D-01  7.07D-01    4.18669D-01
         4    4.22477D-01  0.00D+00  4.22D-01  7.16D-01    4.91113D-01

 ** RSPCTL MICROITERATION NUMBER    2

      Root  Residual tot.,    conf., and orb.    Bnorm      Eigenvalue
      ----------------------------------------------------------------
         1    4.72475D-02  0.00D+00  4.72D-02  7.11D-01    1.58864D-01
         2    7.30869D-02  0.00D+00  7.31D-02  7.19D-01    3.13658D-01
         3    4.46863D-02  0.00D+00  4.47D-02  7.08D-01    3.78964D-01
         4    7.70003D-02  0.00D+00  7.70D-02  7.16D-01    4.32669D-01

 ** RSPCTL MICROITERATION NUMBER    3

      Root  Residual tot.,    conf., and orb.    Bnorm      Eigenvalue
      ----------------------------------------------------------------
         1    1.59989D-02  0.00D+00  1.60D-02  7.12D-01    1.56189D-01
         2    3.08374D-02  0.00D+00  3.08D-02  7.20D-01    3.09231D-01
         3    6.65225D-02  0.00D+00  6.65D-02  7.08D-01    3.72498D-01
         4    6.49333D-02  0.00D+00  6.49D-02  7.20D-01    4.17059D-01

 ** RSPCTL MICROITERATION NUMBER    4

      Root  Residual tot.,    conf., and orb.    Bnorm      Eigenvalue
      ----------------------------------------------------------------
         1    4.97955D-03  0.00D+00  4.98D-03  7.11D-01    1.56057D-01
         2    7.20299D-03  0.00D+00  7.20D-03  7.20D-01    3.08697D-01
         3    1.39807D-01  0.00D+00  1.40D-01  7.12D-01    3.34707D-01
         4    6.84124D-02  0.00D+00  6.84D-02  7.08D-01    3.83829D-01

 ** RSPCTL MICROITERATION NUMBER    5

      Root  Residual tot.,    conf., and orb.    Bnorm      Eigenvalue
      ----------------------------------------------------------------
         1    1.73521D-03  0.00D+00  1.74D-03  7.11D-01    1.56048D-01
         2    1.54448D-03  0.00D+00  1.54D-03  7.20D-01    3.08672D-01
         3    5.96698D-02  0.00D+00  5.97D-02  7.13D-01    3.23895D-01
         4    2.95820D-02  0.00D+00  2.96D-02  7.08D-01    3.81541D-01

 ** RSPCTL MICROITERATION NUMBER    6

      Root  Residual tot.,    conf., and orb.    Bnorm      Eigenvalue
      ----------------------------------------------------------------
         1    3.25763D-04  0.00D+00  3.26D-04  7.11D-01    1.56047D-01
         2    3.03049D-04  0.00D+00  3.03D-04  7.20D-01    3.08671D-01
         3    1.65821D-02  0.00D+00  1.66D-02  7.14D-01    3.21925D-01
         4    1.36295D-02  0.00D+00  1.36D-02  7.08D-01    3.80793D-01

 ** RSPCTL MICROITERATION NUMBER    7

      Root  Residual tot.,    conf., and orb.    Bnorm      Eigenvalue
      ----------------------------------------------------------------
         1    1.73877D-04  0.00D+00  1.74D-04  7.11D-01    1.56047D-01
         2    3.03036D-04  0.00D+00  3.03D-04  7.20D-01    3.08671D-01
         3    2.94468D-03  0.00D+00  2.94D-03  7.14D-01    3.21864D-01
         4    2.35067D-03  0.00D+00  2.35D-03  7.08D-01    3.80759D-01

 ** RSPCTL MICROITERATION NUMBER    8

      Root  Residual tot.,    conf., and orb.    Bnorm      Eigenvalue
      ----------------------------------------------------------------
         1    1.75688D-04  0.00D+00  1.76D-04  7.11D-01    1.56047D-01
         2    3.03037D-04  0.00D+00  3.03D-04  7.20D-01    3.08671D-01
         3    8.54028D-04  0.00D+00  8.54D-04  7.14D-01    3.21861D-01
         4    5.90687D-04  0.00D+00  5.91D-04  7.08D-01    3.80758D-01

 ** RSPCTL MICROITERATION NUMBER    9

      Root  Residual tot.,    conf., and orb.    Bnorm      Eigenvalue
      ----------------------------------------------------------------
         1    1.79217D-04  0.00D+00  1.79D-04  7.11D-01    1.56047D-01
         2    3.03037D-04  0.00D+00  3.03D-04  7.20D-01    3.08671D-01
         3    1.37806D-04  0.00D+00  1.38D-04  7.14D-01    3.21861D-01
         4    5.55786D-04  0.00D+00  5.56D-04  7.08D-01    3.80758D-01

 *** THE REQUESTED    4 SOLUTION VECTORS CONVERGED

 Convergence of RSP solution vectors, threshold = 1.00D-03
 ---------------------------------------------------------------
 (dimension of paired reduced space:   58)
 RSP solution vector no.    1; norm of residual   2.52D-04
 RSP solution vector no.    2; norm of residual   4.21D-04
 RSP solution vector no.    3; norm of residual   1.93D-04
 RSP solution vector no.    4; norm of residual   7.85D-04

 *** RSPCTL MICROITERATIONS CONVERGED

@ Singlet transition operator label: XDIPLEN 
@ STATE NO:    1 *TRANSITION MOMENT: -1.44062634E-04 *ENERGY(eV):   4.2462584    
@ STATE NO:    2 *TRANSITION MOMENT: -0.92235527     *ENERGY(eV):   8.3993627    
@ STATE NO:    3 *TRANSITION MOMENT: -2.85507536E-04 *ENERGY(eV):   8.7582852    
@ STATE NO:    4 *TRANSITION MOMENT: -2.83872553E-05 *ENERGY(eV):   10.360951    

@ Singlet transition operator label: YDIPLEN 
@ STATE NO:    1 *TRANSITION MOMENT:  8.22705715E-05 *ENERGY(eV):   4.2462584    
@ STATE NO:    2 *TRANSITION MOMENT:   1.5937596     *ENERGY(eV):   8.3993627    
@ STATE NO:    3 *TRANSITION MOMENT:  3.53935606E-04 *ENERGY(eV):   8.7582852    
@ STATE NO:    4 *TRANSITION MOMENT:  5.12910087E-05 *ENERGY(eV):   10.360951    

@ Singlet transition operator label: ZDIPLEN 
@ STATE NO:    1 *TRANSITION MOMENT: -5.90191008E-03 *ENERGY(eV):   4.2462584    
@ STATE NO:    2 *TRANSITION MOMENT:  2.17831104E-04 *ENERGY(eV):   8.3993627    
@ STATE NO:    3 *TRANSITION MOMENT: -0.15227235     *ENERGY(eV):   8.7582852    
@ STATE NO:    4 *TRANSITION MOMENT:  3.99406017E-03 *ENERGY(eV):   10.360951    


 **************************************************************************************
 *** @ Excit. operator sym 1 & ref. state sym 1 => excited state symmetry 1  ( A  ) ***
 **************************************************************************************



 @ Excited state no:    1 in symmetry 1  ( A  ) - singlet excitation
 -------------------------------------------------------------------

@ Excitation energy :  0.15604713     au
@                       4.2462584     eV;   34248.386     cm-1;   409.70167     kJ / mol

@ Total energy :       -188.16122     au

@ Operator label: XDIPLEN ; Transition moment : -1.44062634E-04 au
@ Oscillator strength (LENGTH)   :  2.15907250E-09  (X-polarization)

@ Operator label: YDIPLEN ; Transition moment :  8.22705715E-05 au
@ Oscillator strength (LENGTH)   :  7.04131142E-10  (Y-polarization)

@ Operator label: ZDIPLEN ; Transition moment : -5.90191008E-03 au
@ Oscillator strength (LENGTH)   :  3.62367885E-06  (Z-polarization)

 Eigenvector for state no.  1

     Response orbital operator symmetry = 1
     (only scaled elements abs greater than   10.00 % of max abs value)

      Index(r,s)      r      s        (r s) operator      (s r) operator      (r s) scaled        (s r) scaled
      ----------    -----  -----      --------------      --------------      --------------      --------------
          73         9(1)  16(1)       -0.0828987719       -0.0080069071       -0.1172365675       -0.0113234766
         100        12(1)  16(1)       -0.0972145670       -0.0079651991       -0.1374821591       -0.0112644926
         118        14(1)  16(1)       -0.6275285737       -0.0332538098       -0.8874594197       -0.0470279888
         119        14(1)  17(1)       -0.2843991704       -0.0188923441       -0.4022011639       -0.0267178093

      131 elements with absolute value ≤ 1.00D-01 not printed.

 The numbers in parenthesis give the orbital symmetry.


                              MO Overlap Diagnostic
                              ---------------------



Delta_R Diagnostic (Aa):     1.1563



                            PBHT MO Overlap Diagnostic
                            --------------------------


  The dominant contributions:

      I    A    K_IA      K_AI   <|I|*|A|> <I^2*A^2>    Weight   Contrib


@ Overlap diagnostic LAMBDA =    0.4960

@ Reference: MJG Peach, P Benfield, T Helgaker, and DJ Tozer.
@            J Chem Phys 128, 044118 (2008)



 @ Excited state no:    2 in symmetry 1  ( A  ) - singlet excitation
 -------------------------------------------------------------------

@ Excitation energy :  0.30867091     au
@                       8.3993627     eV;   67745.433     cm-1;   810.41534     kJ / mol

@ Total energy :       -188.00860     au

@ Operator label: XDIPLEN ; Transition moment : -0.92235527     au
@ Oscillator strength (LENGTH)   :  0.17506564      (X-polarization)

@ Operator label: YDIPLEN ; Transition moment :   1.5937596     au
@ Oscillator strength (LENGTH)   :  0.52269710      (Y-polarization)

@ Operator label: ZDIPLEN ; Transition moment :  2.17831104E-04 au
@ Oscillator strength (LENGTH)   :  9.76436993E-09  (Z-polarization)

 Eigenvector for state no.  2

     Response orbital operator symmetry = 1
     (only scaled elements abs greater than   10.00 % of max abs value)

      Index(r,s)      r      s        (r s) operator      (s r) operator      (r s) scaled        (s r) scaled
      ----------    -----  -----      --------------      --------------      --------------      --------------
         110        13(1)  17(1)        0.0857934695        0.0129890904        0.1213302881        0.0183693479
         127        15(1)  16(1)        0.6954230707        0.0586511246        0.9834767382        0.0829452159

      133 elements with absolute value ≤ 1.00D-01 not printed.

 The numbers in parenthesis give the orbital symmetry.


                              MO Overlap Diagnostic
                              ---------------------



Delta_R Diagnostic (Aa):     0.6370



                            PBHT MO Overlap Diagnostic
                            --------------------------


  The dominant contributions:

      I    A    K_IA      K_AI   <|I|*|A|> <I^2*A^2>    Weight   Contrib


@ Overlap diagnostic LAMBDA =    0.8403

@ Reference: MJG Peach, P Benfield, T Helgaker, and DJ Tozer.
@            J Chem Phys 128, 044118 (2008)



 @ Excited state no:    3 in symmetry 1  ( A  ) - singlet excitation
 -------------------------------------------------------------------

@ Excitation energy :  0.32186107     au
@                       8.7582852     eV;   70640.338     cm-1;   845.04610     kJ / mol

@ Total energy :       -187.99541     au

@ Operator label: XDIPLEN ; Transition moment : -2.85507536E-04 au
@ Oscillator strength (LENGTH)   :  1.74909074E-08  (X-polarization)

@ Operator label: YDIPLEN ; Transition moment :  3.53935606E-04 au
@ Oscillator strength (LENGTH)   :  2.68797793E-08  (Y-polarization)

@ Operator label: ZDIPLEN ; Transition moment : -0.15227235     au
@ Oscillator strength (LENGTH)   :  4.97529991E-03  (Z-polarization)

 Eigenvector for state no.  3

     Response orbital operator symmetry = 1
     (only scaled elements abs greater than   10.00 % of max abs value)

      Index(r,s)      r      s        (r s) operator      (s r) operator      (r s) scaled        (s r) scaled
      ----------    -----  -----      --------------      --------------      --------------      --------------
          82        10(1)  16(1)       -0.1987135870       -0.0116788524       -0.2810234498       -0.0165163915
          83        10(1)  17(1)       -0.1997187166       -0.0096221094       -0.2824449177       -0.0136077176
          91        11(1)  16(1)       -0.5977584732       -0.0173230993       -0.8453581399       -0.0244985620
          92        11(1)  17(1)       -0.1831602751       -0.0098424942       -0.2590277451       -0.0139193888
         100        12(1)  16(1)        0.1351349186        0.0040959238        0.1911096347        0.0057925109

      130 elements with absolute value ≤ 1.00D-01 not printed.

 The numbers in parenthesis give the orbital symmetry.


                              MO Overlap Diagnostic
                              ---------------------



Delta_R Diagnostic (Aa):     0.4048



                            PBHT MO Overlap Diagnostic
                            --------------------------


  The dominant contributions:

      I    A    K_IA      K_AI   <|I|*|A|> <I^2*A^2>    Weight   Contrib


@ Overlap diagnostic LAMBDA =    0.5616

@ Reference: MJG Peach, P Benfield, T Helgaker, and DJ Tozer.
@            J Chem Phys 128, 044118 (2008)



 @ Excited state no:    4 in symmetry 1  ( A  ) - singlet excitation
 -------------------------------------------------------------------

@ Excitation energy :  0.38075795     au
@                       10.360951     eV;   83566.710     cm-1;   999.67984     kJ / mol

@ Total energy :       -187.93651     au

@ Operator label: XDIPLEN ; Transition moment : -2.83872553E-05 au
@ Oscillator strength (LENGTH)   :  2.04552375E-10  (X-polarization)

@ Operator label: YDIPLEN ; Transition moment :  5.12910087E-05 au
@ Oscillator strength (LENGTH)   :  6.67790444E-10  (Y-polarization)

@ Operator label: ZDIPLEN ; Transition moment :  3.99406017E-03 au
@ Oscillator strength (LENGTH)   :  4.04936501E-06  (Z-polarization)

 Eigenvector for state no.  4

     Response orbital operator symmetry = 1
     (only scaled elements abs greater than   10.00 % of max abs value)

      Index(r,s)      r      s        (r s) operator      (s r) operator      (r s) scaled        (s r) scaled
      ----------    -----  -----      --------------      --------------      --------------      --------------
          74         9(1)  17(1)       -0.0913386551       -0.0022018029       -0.1291723648       -0.0031138195
          91        11(1)  16(1)       -0.1601183714       -0.0014731106       -0.2264415724       -0.0020832929
         100        12(1)  16(1)       -0.6021187683       -0.0078383659       -0.8515245283       -0.0110851233
         101        12(1)  17(1)        0.1891927532        0.0036848774        0.2675589574        0.0052112035
         118        14(1)  16(1)        0.1705148432       -0.0016933024        0.2411444039       -0.0023946913
         119        14(1)  17(1)       -0.1676274605       -0.0039434417       -0.2370610281       -0.0055768687

      129 elements with absolute value ≤ 1.00D-01 not printed.

 The numbers in parenthesis give the orbital symmetry.


                              MO Overlap Diagnostic
                              ---------------------



Delta_R Diagnostic (Aa):     0.9682



                            PBHT MO Overlap Diagnostic
                            --------------------------


  The dominant contributions:

      I    A    K_IA      K_AI   <|I|*|A|> <I^2*A^2>    Weight   Contrib


@ Overlap diagnostic LAMBDA =    0.4992

@ Reference: MJG Peach, P Benfield, T Helgaker, and DJ Tozer.
@            J Chem Phys 128, 044118 (2008)



 Time used in polarization propagator calculation is      1.87 CPU seconds for symmetry 1

  Total CPU  time used in RESPONSE:   1.90 seconds
  Total wall time used in RESPONSE:   2.14 seconds


                   .-------------------------------------------.
                   | End of Dynamic Property Section (RESPONS) |
                   `-------------------------------------------'

  Total CPU  time used in DALTON:   2.51 seconds
  Total wall time used in DALTON:   2.79 seconds

 
     Date and time (Linux)  : Fri Jul 24 11:19:12 2020
     Host name              : gemini                                  
