

     ************************************************************************
     *************** Dalton - An Electronic Structure Program ***************
     ************************************************************************

    This is output from DALTON release Dalton2020.0.1 (2020)
         ( Web site: http://daltonprogram.org )

   ----------------------------------------------------------------------------

    NOTE:
     
    Dalton is an experimental code for the evaluation of molecular
    properties using (MC)SCF, DFT, CI, and CC wave functions.
    The authors accept no responsibility for the performance of
    the code or for the correctness of the results.
     
    The code (in whole or part) is provided under a licence and
    is not to be reproduced for further distribution without
    the written permission of the authors or their representatives.
     
    See the home page "http://daltonprogram.org" for further information.
     
    If results obtained with this code are published,
    the appropriate citations would be both of:
     
       K. Aidas, C. Angeli, K. L. Bak, V. Bakken, R. Bast,
       L. Boman, O. Christiansen, R. Cimiraglia, S. Coriani,
       P. Dahle, E. K. Dalskov, U. Ekstroem,
       T. Enevoldsen, J. J. Eriksen, P. Ettenhuber, B. Fernandez,
       L. Ferrighi, H. Fliegl, L. Frediani, K. Hald, A. Halkier,
       C. Haettig, H. Heiberg, T. Helgaker, A. C. Hennum,
       H. Hettema, E. Hjertenaes, S. Hoest, I.-M. Hoeyvik,
       M. F. Iozzi, B. Jansik, H. J. Aa. Jensen, D. Jonsson,
       P. Joergensen, J. Kauczor, S. Kirpekar,
       T. Kjaergaard, W. Klopper, S. Knecht, R. Kobayashi, H. Koch,
       J. Kongsted, A. Krapp, K. Kristensen, A. Ligabue,
       O. B. Lutnaes, J. I. Melo, K. V. Mikkelsen, R. H. Myhre,
       C. Neiss, C. B. Nielsen, P. Norman, J. Olsen,
       J. M. H. Olsen, A. Osted, M. J. Packer, F. Pawlowski,
       T. B. Pedersen, P. F. Provasi, S. Reine, Z. Rinkevicius,
       T. A. Ruden, K. Ruud, V. Rybkin, P. Salek, C. C. M. Samson,
       A. Sanchez de Meras, T. Saue, S. P. A. Sauer,
       B. Schimmelpfennig, K. Sneskov, A. H. Steindal,
       K. O. Sylvester-Hvid, P. R. Taylor, A. M. Teale,
       E. I. Tellgren, D. P. Tew, A. J. Thorvaldsen, L. Thoegersen,
       O. Vahtras, M. A. Watson, D. J. D. Wilson, M. Ziolkowski
       and H. Agren,
       "The Dalton quantum chemistry program system",
       WIREs Comput. Mol. Sci. 2014, 4:269–284 (doi: 10.1002/wcms.1172)
     
    and
     
       Dalton, a molecular electronic structure program,
       Release Dalton2020.0.1 (2020), see http://daltonprogram.org
   ----------------------------------------------------------------------------

    Authors in alphabetical order (Major contribution(s) in parenthesis):

  Kestutis Aidas,           Vilnius University,           Lithuania   (QM/MM)
  Celestino Angeli,         University of Ferrara,        Italy       (NEVPT2)
  Keld L. Bak,              UNI-C,                        Denmark     (AOSOPPA, non-adiabatic coupling, magnetic properties)
  Vebjoern Bakken,          University of Oslo,           Norway      (DALTON; geometry optimizer, symmetry detection)
  Radovan Bast,             UiT The Arctic U. of Norway,  Norway      (DALTON installation and execution frameworks)
  Pablo Baudin,             University of Valencia,       Spain       (Cholesky excitation energies)
  Linus Boman,              NTNU,                         Norway      (Cholesky decomposition and subsystems)
  Bruno N. Cabral Tenorio,  Technical Univ. of Denmark,   Denmark     (Lanczos-based CC methods)
  Ove Christiansen,         Aarhus University,            Denmark     (CC module)
  Renzo Cimiraglia,         University of Ferrara,        Italy       (NEVPT2)
  Sonia Coriani,            Technical Univ. of Denmark,   Denmark     (CC and RESPONS modules)
  Janusz Cukras,            University of Warsaw,         Poland      (MChD in RESPONS)
  Paal Dahle,               University of Oslo,           Norway      (Parallelization)
  Erik K. Dalskov,          UNI-C,                        Denmark     (SOPPA)
  Thomas Enevoldsen,        Univ. of Southern Denmark,    Denmark     (SOPPA)
  Janus J. Eriksen,         Aarhus University,            Denmark     (Polarizable embedding, TDA)
  Rasmus Faber,             Technical Univ. of Denmark,   Denmark     (Vib.avg. NMR w. SOPPA, parallel AO-SOPPA, CVS-CC and EOMCC)
  Tobias Fahleson,          KTH Stockholm,                Sweden      (Damped cubic response)
  Berta Fernandez,          U. of Santiago de Compostela, Spain       (Doublet spin, ESR in RESPONS)
  Lara Ferrighi,            Aarhus University,            Denmark     (PCM Cubic response)
  Heike Fliegl,             University of Oslo,           Norway      (CCSD(R12))
  Luca Frediani,            UiT The Arctic U. of Norway,  Norway      (PCM)
  Emmanuel Fromager,        Univ. Strasbourg,             France      (MC-srDFT)
  Bin Gao,                  UiT The Arctic U. of Norway,  Norway      (Gen1Int library)
  Andre S. P. Gomes,        CNRS/Universite de Lille,     France      (Frozen density embedding)
  Christof Haettig,         Ruhr-University Bochum,       Germany     (CC module)
  Kasper Hald,              Aarhus University,            Denmark     (CC module)
  Asger Halkier,            Aarhus University,            Denmark     (CC module)
  Frederik Beyer Hansen,    University of Copenhagen,     Denmark     (Parallel AO-SOPPA)
  Erik D. Hedegaard,        Univ. of Southern Denmark,    Denmark     (Polarizable embedding, QM/MM, and MC-srDFT)
  Hanne Heiberg,            University of Oslo,           Norway      (Geometry analysis, selected one-electron integrals)
  Trygve Helgaker,          University of Oslo,           Norway      (DALTON; ABACUS, ERI, DFT modules, London, and much more)
  Alf Christian Hennum,     University of Oslo,           Norway      (Parity violation)
  Hinne Hettema,            University of Auckland,       New Zealand (Quadratic response in RESPONS; SIRIUS supersymmetry)
  Eirik Hjertenaes,         NTNU,                         Norway      (Cholesky decomposition)
  Pi A. B. Haase,           University of Copenhagen,     Denmark     (Triplet AO-SOPPA)
  Maria Francesca Iozzi,    University of Oslo,           Norway      (RPA)
  Christoph Jacob           TU Braunschweig               Germany     (Frozen density embedding)
  Brano Jansik              Technical Univ. of Ostrava    Czech Rep.  (DFT cubic response)
  Hans Joergen Aa. Jensen,  Univ. of Southern Denmark,    Denmark     (DALTON; SIRIUS, RESPONS, ABACUS, MC-srDFT, and much more)
  Dan Jonsson,              UiT The Arctic U. of Norway,  Norway      (Cubic response in RESPONS module)
  Poul Joergensen,          Aarhus University,            Denmark     (RESPONS, ABACUS, and CC modules)
  Maciej Kaminski,          University of Warsaw,         Poland      (CPPh in RESPONS)
  Joanna Kauczor,           Linkoeping University,        Sweden      (Complex polarization propagator (CPP) module)
  Sheela Kirpekar,          Univ. of Southern Denmark,    Denmark     (Mass-velocity & Darwin integrals)
  Erik Kjellgren,           Univ. of Southern Denmark,    Denmark     (MC-srDFT)
  Wim Klopper,              KIT Karlsruhe,                Germany     (R12 code in CC, SIRIUS, and ABACUS modules)
  Stefan Knecht,            ETH Zurich,                   Switzerland (Parallel CI and MCSCF, MC-srDFT)
  Rika Kobayashi,           Australian National Univ.,    Australia   (DIIS in CC, London in MCSCF)
  Henrik Koch,              NTNU,                         Norway      (CC module, Cholesky decomposition)
  Jacob Kongsted,           Univ. of Southern Denmark,    Denmark     (Polarizable embedding, polarizable density embedding, QM/MM)
  Andrea Ligabue,           University of Modena,         Italy       (CTOCD, AOSOPPA)
  Nanna H. List             Univ. of Southern Denmark,    Denmark     (Polarizable embedding)
  Ola B. Lutnaes,           University of Oslo,           Norway      (DFT Hessian)
  Juan I. Melo,             University of Buenos Aires,   Argentina   (LRESC, Relativistic Effects on NMR Shieldings)
  Kurt V. Mikkelsen,        University of Copenhagen,     Denmark     (MC-SCRF and QM/MM)
  Rolf H. Myhre,            NTNU,                         Norway      (Subsystems and CC3)
  Christian Neiss,          Univ. Erlangen-Nuernberg,     Germany     (CCSD(R12))
  Christian B. Nielsen,     University of Copenhagen,     Denmark     (QM/MM)
  Patrick Norman,           KTH Stockholm,                Sweden      (Cubic response and complex frequency response in RESPONS)
  Jeppe Olsen,              Aarhus University,            Denmark     (SIRIUS CI/density modules)
  Jogvan Magnus H. Olsen,   Aarhus University,            Denmark     (Polarizable embedding and polarizable density embedding)
  Anders Osted,             Copenhagen University,        Denmark     (QM/MM)
  Martin J. Packer,         University of Sheffield,      UK          (SOPPA)
  Filip Pawlowski,          Kazimierz Wielki University,  Poland      (CC3)
  Morten N. Pedersen,       Univ. of Southern Denmark,    Denmark     (Polarizable embedding)
  Thomas B. Pedersen,       University of Oslo,           Norway      (Cholesky decomposition)
  Patricio F. Provasi,      University of Northeastern,   Argentina   (Analysis of coupling constants in localized orbitals)
  Peter Reinholdt,          Univ. of Southern Denmark,    Denmark     (Polarizable embedding and polarizable density embedding)
  Zilvinas Rinkevicius,     KTH Stockholm,                Sweden      (open-shell DFT, ESR)
  Elias Rudberg,            KTH Stockholm,                Sweden      (DFT grid and basis info)
  Torgeir A. Ruden,         University of Oslo,           Norway      (Numerical derivatives in ABACUS)
  Kenneth Ruud,             UiT The Arctic U. of Norway,  Norway      (DALTON; ABACUS magnetic properties and much more)
  Pawel Salek,              KTH Stockholm,                Sweden      (DALTON; DFT code)
  Claire C. M. Samson       University of Karlsruhe       Germany     (Boys localization, r12 integrals in ERI)
  Alfredo Sanchez de Meras, University of Valencia,       Spain       (CC module, Cholesky decomposition)
  Trond Saue,               Paul Sabatier University,     France      (direct Fock matrix construction)
  Stephan P. A. Sauer,      University of Copenhagen,     Denmark     (SOPPA(CCSD), SOPPA prop., AOSOPPA, vibrational g-factors)
  Bernd Schimmelpfennig,    Forschungszentrum Karlsruhe,  Germany     (AMFI module)
  Anna K. Schnack-Petersen, University of Copenhagen,     Denmark     (RPA(D) and HRPA(D) properties in AOSOPPA)
  Kristian Sneskov,         Aarhus University,            Denmark     (Polarizable embedding, QM/MM)
  Arnfinn H. Steindal,      UiT The Arctic U. of Norway,  Norway      (parallel QM/MM, polarizable embedding)
  Casper Steinmann,         Aalborg University,           Denmark     (QFIT, polarizable embedding)
  K. O. Sylvester-Hvid,     University of Copenhagen,     Denmark     (MC-SCRF)
  Peter R. Taylor,          VLSCI/Univ. of Melbourne,     Australia   (Symmetry handling ABACUS, integral transformation)
  Andrew M. Teale,          University of Nottingham,     England     (DFT-AC, DFT-D)
  David P. Tew,             University of Bristol,        England     (CCSD(R12))
  Julien Toulouse,          Sorbonne Univ.,               France      (MC-srDFT)
  Olav Vahtras,             KTH Stockholm,                Sweden      (Triplet response, spin-orbit, ESR, TDDFT, open-shell DFT)
  Lucas Visscher,           Vrije Universiteit Amsterdam, Netherlands (Frozen density embedding)
  David J. Wilson,          La Trobe University,          Australia   (DFT Hessian and DFT magnetizabilities)
  Hans Agren,               KTH Stockholm,                Sweden      (SIRIUS module, RESPONS, MC-SCRF solvation)
 --------------------------------------------------------------------------------

     Date and time (Linux)  : Thu Jan 13 12:23:43 2022
     Host name              : loke                                    

 * Work memory size             :    64000000 =  488.28 megabytes.

 * Directories for basis set searches:
   1) /home/reinholdt/Programs/dalton/DALTON/test/pehf_approximate_coupling
   2) /home/reinholdt/Programs/dalton/build-mpi-intel/basis


Compilation information
-----------------------

 Who compiled             | reinholdt
 Host                     | loke
 System                   | Linux-5.15.7-arch1-1
 CMake generator          | Unix Makefiles
 Processor                | x86_64
 64-bit integers          | OFF
 MPI                      | ON
 Fortran compiler         | /opt/intel/oneapi/mpi/2021.1.1/bin/mpiifort
 Fortran compiler version | unknown
 C compiler               | /opt/intel/oneapi/mpi/2021.1.1/bin/mpiicc
 C compiler version       | unknown
 C++ compiler             | /opt/intel/oneapi/mpi/2021.1.1/bin/mpiicpc
 C++ compiler version     | unknown
 BLAS                     | /opt/intel/oneapi/mkl/latest/lib/intel64/libmkl_in
                          | tel_lp64.so;/opt/intel/oneapi/mkl/latest/lib/intel
                          | 64/libmkl_sequential.so;/opt/intel/oneapi/mkl/late
                          | st/lib/intel64/libmkl_core.so;/usr/lib/libpthread.
                          | so;/usr/lib/libm.so
 LAPACK                   | /opt/intel/oneapi/mkl/latest/lib/intel64/libmkl_la
                          | pack95_lp64.a;/opt/intel/oneapi/mkl/latest/lib/int
                          | el64/libmkl_intel_lp64.so
 Static linking           | OFF
 Last Git revision        | f7addc0c0a5fb7bb1aed4b6d31531d2c4c616cc4
 Git branch               | approximate-qmmm-coupling
 Configuration time       | 2022-01-13 12:23:26.749190

 * Sequential calculation.


   Content of the .dal input file
 ----------------------------------

**DALTON
.RUN PROPERTIES
.PELIB
*PELIB
.INT_SCHEME
ESPF
.INT_ORDER
2
.INT_RCUT
5.0
.INT_RFIT
10.0
.ESPF_SOLVER
SPTRS
**WAVE FUNCTIONS
.HF
**PROPERTIES
.EXCITA
*EXCITA
.NEXCIT
4
.DIPSTR
**END OF


   Content of the .mol file
 ----------------------------

BASIS
STO-3G
Core region
Generated by PyFraME
AtomTypes=4 Charge=0 NoSymmetry Angstrom
Charge=8.0 Atoms=1
O     22.023000    21.518000    24.152000
Charge=6.0 Atoms=1
C     21.679000    21.881000    23.002000
Charge=7.0 Atoms=1
N     22.479000    22.476000    22.150000
Charge=1.0 Atoms=3
H     20.648000    21.692000    22.644000
H     23.458000    22.699000    22.384000
H     22.140000    22.706000    21.206000


       *******************************************************************
       *********** Output from DALTON general input processing ***********
       *******************************************************************

 --------------------------------------------------------------------------------
   Overall default print level:    0
   Print level for DALTON.STAT:    1

    HERMIT 1- and 2-electron integral sections will be executed
    "Old" integral transformation used (limited to max 255 basis functions)
    Wave function sections will be executed (SIRIUS module)
    Static molecular property section will be executed (ABACUS module)
    Environment effects are included (PElib)
 --------------------------------------------------------------------------------


   ****************************************************************************
   *************** Output of molecule and basis set information ***************
   ****************************************************************************


    The two title cards from your ".mol" input:
    ------------------------------------------------------------------------
 1: Core region                                                             
 2: Generated by PyFraME                                                    
    ------------------------------------------------------------------------

  Coordinates are entered in Angstrom and converted to atomic units.
          - Conversion factor : 1 bohr = 0.52917721 A

  Atomic type no.    1
  --------------------
  Nuclear charge:   8.00000
  Number of symmetry independent centers:    1
  Number of basis sets to read;    2
  Basis set file used for this atomic type with Z =   8 :
     "/home/reinholdt/Programs/dalton/build-mpi-intel/basis/STO-3G"

  Atomic type no.    2
  --------------------
  Nuclear charge:   6.00000
  Number of symmetry independent centers:    1
  Number of basis sets to read;    2
  Basis set file used for this atomic type with Z =   6 :
     "/home/reinholdt/Programs/dalton/build-mpi-intel/basis/STO-3G"

  Atomic type no.    3
  --------------------
  Nuclear charge:   7.00000
  Number of symmetry independent centers:    1
  Number of basis sets to read;    2
  Basis set file used for this atomic type with Z =   7 :
     "/home/reinholdt/Programs/dalton/build-mpi-intel/basis/STO-3G"

  Atomic type no.    4
  --------------------
  Nuclear charge:   1.00000
  Number of symmetry independent centers:    3
  Number of basis sets to read;    2
  Basis set file used for this atomic type with Z =   1 :
     "/home/reinholdt/Programs/dalton/build-mpi-intel/basis/STO-3G"


                         SYMGRP: Point group information
                         -------------------------------

@    Point group: C1 


                                 Isotopic Masses
                                 ---------------

                           O          15.994915
                           C          12.000000
                           N          14.003074
                           H           1.007825
                           H           1.007825
                           H           1.007825

                       Total mass:    45.021464 amu
                       Natural abundance:  98.253 %

 Center-of-mass coordinates (a.u.):   41.719678   41.516617   43.621518
 Center-of-mass coordinates (Angs):   22.077103   21.969648   23.083513


  Atoms and basis sets
  --------------------

  Number of atom types :    4
  Total number of atoms:    6

  Basis set used is "STO-3G" from the basis set library.

  label    atoms   charge   prim   cont     basis
  ----------------------------------------------------------------------
  O           1    8.0000    15     5      [6s3p|2s1p]                                        
  C           1    6.0000    15     5      [6s3p|2s1p]                                        
  N           1    7.0000    15     5      [6s3p|2s1p]                                        
  H           3    1.0000     3     1      [3s|1s]                                            
  ----------------------------------------------------------------------
  total:      6   24.0000    54    18
  ----------------------------------------------------------------------

  Threshold for neglecting AO integrals:  1.00D-12


  Cartesian Coordinates (a.u.)
  ----------------------------

  Total number of coordinates:   18
  O       :     1  x  41.6174384507    2  y  40.6631267576    3  z  45.6406653708
  C       :     4  x  40.9673726637    5  y  41.3490973410    6  z  43.4674803271
  N       :     7  x  42.4791535637    8  y  42.4734843854    9  z  41.8574336686
  H       :    10  x  39.0190650289   11  y  40.9919391034   12  z  42.7909583744
  H       :    13  x  44.3291954401   14  y  42.8948933112   15  z  42.2996295819
  H       :    16  x  41.8385364074   17  y  42.9081213941   18  z  40.0735322066


   Interatomic separations (in Angstrom):
   --------------------------------------

            O           C           N           H           H           H     
            ------      ------      ------      ------      ------      ------
 O     :    0.000000
 C     :    1.254035    0.000000
 N     :    2.265768    1.311461    0.000000
 H     :    2.048161    1.107631    2.052134    0.000000
 H     :    2.565114    2.053263    1.030983    2.996289    0.000000
 H     :    3.178671    2.029473    1.029056    2.306969    1.767727    0.000000


  Max    interatomic separation is    3.1787 Angstrom (    6.0068 Bohr)
  between atoms    6 and    1, "H     " and "O     ".

  Min HX interatomic separation is    1.0291 Angstrom (    1.9446 Bohr)

  Min YX interatomic separation is    1.2540 Angstrom (    2.3698 Bohr)


  Bond distances (Angstrom):
  --------------------------

                  atom 1     atom 2       distance
                  ------     ------       --------
  bond distance:  C          O            1.254035
  bond distance:  N          C            1.311461
  bond distance:  H          C            1.107631
  bond distance:  H          N            1.030983
  bond distance:  H          N            1.029056


  Bond angles (degrees):
  ----------------------

                  atom 1     atom 2     atom 3         angle
                  ------     ------     ------         -----
  bond angle:     O          C          N            124.039
  bond angle:     O          C          H            120.155
  bond angle:     N          C          H            115.801
  bond angle:     C          N          H            122.001
  bond angle:     C          N          H            119.763
  bond angle:     H          N          H            118.209




 Principal moments of inertia (u*A**2) and principal axes
 --------------------------------------------------------

   IA       7.065310         -0.214112   -0.423576    0.880193
   IB      44.022601          0.935093    0.171639    0.310065
   IC      51.084269         -0.282412    0.889451    0.359333


 Rotational constants
 --------------------

               A                   B                   C

          71529.6333          11479.9898           9893.0457 MHz
            2.385972            0.382931            0.329996 cm-1


@  Nuclear repulsion energy :   71.010564848029 Hartree

  Reading potential input file for polarizable embedding calculation
 
    .------------------------------------------------.
    | Information from polarizable embedding library |
    `------------------------------------------------´

      Number of classical sites:    147

      Multipole moments upto 2nd order.

      Dipole-dipole polarizabilities.

      Iterative solver for induced moments will be used
      with convergence threshold: 1.0E-08
      Total charge of classical region:    0.0000
 


                     .---------------------------------------.
                     | Starting in Integral Section (HERMIT) |
                     `---------------------------------------'



 ***************************************************************************************
 ****************** Output from **INTEGRALS input processing (HERMIT) ******************
 ***************************************************************************************


 - Using defaults, no **INTEGRALS input found

 Default print level:        1

 Calculation of one- and two-electron Hamiltonian integrals.

 Center of mass  (bohr):     41.719677904615     41.516617349944     43.621517896221
 Operator center (bohr):      0.000000000000      0.000000000000      0.000000000000
 Gauge origin    (bohr):      0.000000000000      0.000000000000      0.000000000000
 Dipole origin   (bohr):      0.000000000000      0.000000000000      0.000000000000

Calculation of 2-electron integrals are postponed until they are needed.


     ************************************************************************
     ************************** Output from HERINT **************************
     ************************************************************************



                      Nuclear contribution to dipole moments
                      --------------------------------------

                 au               Debye          C m (/(10**-30)

      x   1001.28461541      2545.01147419      8489.24449656
      y    997.50894261      2535.41467179      8457.23300949
      z   1044.09636077      2653.82806989      8852.21758943


  Total CPU  time used in HERMIT:   0.01 seconds
  Total wall time used in HERMIT:   0.00 seconds


                        .----------------------------------.
                        | End of Integral Section (HERMIT) |
                        `----------------------------------'



                   .--------------------------------------------.
                   | Starting in Wave Function Section (SIRIUS) |
                   `--------------------------------------------'


 *** Output from Huckel module :

     Using EWMO model:          T
     Using EHT  model:          F
     Number of Huckel orbitals each symmetry:   18

 EWMO - Energy Weighted Maximum Overlap - is a Huckel type method,
        which normally is better than Extended Huckel Theory.
 Reference: Linderberg and Ohrn, Propagators in Quantum Chemistry (Wiley, 1973)

 Huckel EWMO eigenvalues for symmetry :  1
          -20.684215     -15.675275     -11.353482      -1.767420      -1.421140
           -1.007213      -0.798493      -0.740313      -0.662682      -0.566030
           -0.523218      -0.500938      -0.268127      -0.191314      -0.168624
           -0.144814      -0.123493      -0.110507

 **********************************************************************
 *SIRIUS* a direct, restricted step, second order MCSCF program       *
 **********************************************************************

 
     Date and time (Linux)  : Thu Jan 13 12:23:43 2022
     Host name              : loke                                    

 Title lines from ".mol" input file:
     Core region                                                             
     Generated by PyFraME                                                    

 Print level on unit LUPRI =   2 is   0
 Print level on unit LUW4  =   2 is   5

@    Restricted, closed shell Hartree-Fock calculation.

 Initial molecular orbitals are obtained according to
 ".MOSTART EWMO  " input option

@    QM part is embedded in an environment :

@         Model: PE

     Wave function specification
     ============================

     Wave function environment is modeled using the
     polarizable embedding model (PE library).

@    Wave function type        --- PE-HF ---
@    Number of closed shell electrons          24
@    Number of electrons in active shells       0
@    Total charge of the molecule               0

@    Spin multiplicity and 2 M_S                1         0
@    Total number of symmetries                 1 (point group: C1 )
@    Reference state symmetry                   1 (irrep name : A  )

     Orbital specifications
     ======================
@    Abelian symmetry species          All |    1
@                                          |  A  
                                       --- |  ---
@    Occupied SCF orbitals              12 |   12
@    Secondary orbitals                  6 |    6
@    Total number of orbitals           18 |   18
@    Number of basis functions          18 |   18

     Optimization information
     ========================
@    Number of configurations                 1
@    Number of orbital rotations             72
     ------------------------------------------
@    Total number of variables               73

     Maximum number of Fock   iterations      0
     Maximum number of DIIS   iterations     60
     Maximum number of QC-SCF iterations     60
     Threshold for SCF convergence     1.00D-05


 ***********************************************
 ***** DIIS acceleration of SCF iterations *****
 ***********************************************

 C1-DIIS algorithm; max error vectors =    8

 Iter      Total energy     Embedding energy      Error norm     Delta(E)
 -----------------------------------------------------------------------------

Calculating AOSUPINT

---> (Re)generating AOTWOINT


     ************************************************************************
     ************************** Output from HERINT **************************
     ************************************************************************


 Threshold for neglecting two-electron integrals:  1.00D-12
 HERMIT - Number of two-electron integrals written:       14272 ( 97.0% )
 HERMIT - Megabytes written:                              0.165

     (Precalculated AO two-electron integrals are transformed to P-supermatrix elements.
      Threshold for discarding integrals :  1.00D-12 )
@  1  -166.467333958     -0.163780512145        2.03502D+00   -1.66D+02
      Virial theorem: -V/T =      2.004405
@    MULPOP   O      -1.12; C       1.11; N      -0.00; H      -0.16; H       0.08; H       0.10; 
   1  Level shift: doubly occupied orbital energies shifted by -2.00D-01
 -----------------------------------------------------------------------------
@  2  -166.800776180     -0.198744537647        9.34937D-01   -3.33D-01
      Virial theorem: -V/T =      2.009951
@    MULPOP   O       0.11; C      -0.09; N      -0.59; H       0.05; H       0.32; H       0.20; 
   2  Level shift: doubly occupied orbital energies shifted by -1.00D-01
 -----------------------------------------------------------------------------
@  3  -166.859570611     -0.190757081601        1.51734D-01   -5.88D-02
      Virial theorem: -V/T =      2.009640
@    MULPOP   O      -0.23; C       0.20; N      -0.44; H       0.04; H       0.29; H       0.15; 
   3  Level shift: doubly occupied orbital energies shifted by -2.50D-02
 -----------------------------------------------------------------------------
@  4  -166.862930477     -0.191622653055        3.17994D-02   -3.36D-03
      Virial theorem: -V/T =      2.009454
@    MULPOP   O      -0.25; C       0.21; N      -0.43; H       0.05; H       0.29; H       0.13; 
 -----------------------------------------------------------------------------
@  5  -166.863143746     -0.191769022189        6.67770D-03   -2.13D-04
      Virial theorem: -V/T =      2.009446
@    MULPOP   O      -0.25; C       0.21; N      -0.43; H       0.05; H       0.29; H       0.13; 
 -----------------------------------------------------------------------------
@  6  -166.863152101     -0.191741463289        1.74577D-03   -8.36D-06
      Virial theorem: -V/T =      2.009461
@    MULPOP   O      -0.25; C       0.21; N      -0.43; H       0.05; H       0.29; H       0.13; 
 -----------------------------------------------------------------------------
@  7  -166.863152631     -0.191736876745        7.44923D-04   -5.29D-07
      Virial theorem: -V/T =      2.009462
@    MULPOP   O      -0.25; C       0.21; N      -0.43; H       0.05; H       0.29; H       0.13; 
 -----------------------------------------------------------------------------
@  8  -166.863152730     -0.191736550170        2.09665D-04   -9.92D-08
      Virial theorem: -V/T =      2.009464
@    MULPOP   O      -0.25; C       0.21; N      -0.43; H       0.05; H       0.29; H       0.13; 
 -----------------------------------------------------------------------------
@  9  -166.863152739     -0.191736486935        3.64948D-05   -8.86D-09
      Virial theorem: -V/T =      2.009464
@    MULPOP   O      -0.25; C       0.21; N      -0.43; H       0.05; H       0.29; H       0.13; 
 -----------------------------------------------------------------------------
@ 10  -166.863152739     -0.191736675113        1.63772D-05   -3.94D-10
      Virial theorem: -V/T =      2.009464
@    MULPOP   O      -0.25; C       0.21; N      -0.43; H       0.05; H       0.29; H       0.13; 
 -----------------------------------------------------------------------------
@ 11  -166.863152740     -0.191736682543        7.42001D-06   -1.62D-10

@ *** DIIS converged in  11 iterations !
@     Converged SCF energy, gradient:   -166.863152739550    7.42D-06
    - total time used in SIRFCK :              0.00 seconds


 *** SCF orbital energy analysis ***
   (incl. contribution from polarizable embedding potential)

 Number of electrons :   24
 Orbital occupations :   12

 Sym       Hartree-Fock orbital energies

1 A     -20.16839943   -15.32909413   -11.10063553    -1.24800556    -1.10694354
         -0.74116720    -0.64943058    -0.55352715    -0.46782822    -0.42845732
         -0.27651331    -0.25208663     0.37210298     0.58448447     0.64260867
          0.76693899     0.92989458     1.01940046

    E(LUMO) :     0.37210298 au (symmetry 1)
  - E(HOMO) :    -0.25208663 au (symmetry 1)
  ------------------------------------------
    gap     :     0.62418961 au

    .--------------------------------------------------.
    | Final results from polarizable embedding library |
    `--------------------------------------------------´

        Polarizable embedding energy contributions:
       ---------------------------------------------

       Electrostatic contributions:
            Electronic                 1.252130864534
            Nuclear                   -1.250149778129
            Multipole                  0.000000000000
            Total                      0.001981086405

       Polarization contributions:
            Electronic                -0.161706200458
            Nuclear                    0.160383161300
            Multipole                 -0.192394729791
            Total                     -0.193717768948

       Total PE energy:               -0.191736682543
            (excl. multipole-multipole interaction energy)

 --- Writing SIRIFC interface file


                           +---------------------------+
                           ! Writing FOCKMAT in siropt !
                           +---------------------------+


 CPU and wall time for SCF :       0.729       0.730


                       .-----------------------------------.
                       | --- Final results from SIRIUS --- |
                       `-----------------------------------'


@    Spin multiplicity:           1
@    Spatial symmetry:            1 ( irrep  A   in C1  )
@    Total charge of molecule:    0

@    Final HF energy:            -166.863152739550                 
@    Nuclear repulsion:            71.010564848029
@    Electronic energy:          -237.681980905036
@    Embedding energy:             -0.191736682543

@    Final gradient norm:           0.000007420010

 
     Date and time (Linux)  : Thu Jan 13 12:23:44 2022
     Host name              : loke                                    

File label for MO orbitals:  13Jan22   FOCKDIIS

 (Only coefficients > 0.0100 are printed.)

 Molecular orbitals for symmetry species 1  (A  )
 ------------------------------------------------

    Orbital         1        2        3        4        5        6        7
   1 O   :1s    -0.9943   0.0000   0.0002   0.1881  -0.1145   0.0731   0.0316
   2 O   :1s    -0.0255  -0.0004  -0.0053  -0.6553   0.4143  -0.3089  -0.1445
   3 O   :2px    0.0014  -0.0003   0.0003   0.0358  -0.0279  -0.0617   0.1405
   4 O   :2py   -0.0016  -0.0002  -0.0006  -0.0484   0.0111   0.0120   0.0807
   5 O   :2pz    0.0049   0.0002   0.0016   0.1372  -0.0437  -0.0776  -0.0833
   6 C   :1s    -0.0006  -0.0005   0.9926   0.1439   0.0358  -0.1533  -0.0212
   7 C   :1s     0.0067   0.0071   0.0332  -0.3384  -0.0744   0.4757   0.0611
   8 C   :2px    0.0018   0.0033   0.0008  -0.0657  -0.0465  -0.1451   0.3136
   9 C   :2py   -0.0017   0.0024   0.0006   0.0148  -0.0944   0.0349   0.1065
  10 C   :2pz    0.0055  -0.0034  -0.0009  -0.0959   0.1948  -0.1793  -0.0119
  11 N   :1s     0.0000  -0.9932   0.0003   0.0863   0.1982   0.0598  -0.0049
  12 N   :1s    -0.0003  -0.0331  -0.0064  -0.2713  -0.6515  -0.2400   0.0183
  13 N   :2px   -0.0004   0.0011   0.0021   0.0379   0.0451  -0.2977   0.1497
  14 N   :2py    0.0001   0.0008   0.0016   0.0299   0.0186  -0.1582  -0.1322
  15 N   :2pz   -0.0005  -0.0007  -0.0025  -0.0465  -0.0150   0.1666   0.4741
  16 H   :1s    -0.0002  -0.0004  -0.0066  -0.0429  -0.0197   0.2736  -0.1687
  17 H   :1s     0.0002   0.0061  -0.0004  -0.0334  -0.1007  -0.2051   0.1340
  18 H   :1s    -0.0000   0.0064  -0.0004  -0.0389  -0.1438  -0.1512  -0.4174

    Orbital         8        9       10       11       12       13       14
   1 O   :1s     0.0523   0.0053  -0.0980   0.0001  -0.0007   0.0003  -0.0158
   2 O   :1s    -0.2543  -0.0278   0.5150   0.0018   0.0026  -0.0030   0.0980
   3 O   :2px   -0.2349   0.0836   0.0943   0.8425   0.2629   0.1976   0.1002
   4 O   :2py   -0.0251  -0.2953  -0.2262   0.3716  -0.5567  -0.6194   0.0854
   5 O   :2pz   -0.1114  -0.1518   0.5786  -0.0942  -0.2596  -0.2404  -0.1613
   6 C   :1s    -0.0385  -0.0042   0.0508  -0.0079  -0.0003  -0.0027   0.0276
   7 C   :1s     0.1448   0.0129  -0.1942   0.0410   0.0010   0.0180  -0.1335
   8 C   :2px   -0.3213   0.1513  -0.1986  -0.0549   0.0819  -0.2347  -0.3489
   9 C   :2py   -0.1475  -0.4690   0.0698   0.0234  -0.2717   0.7574  -0.0978
  10 C   :2pz    0.1490  -0.1709  -0.3973  -0.0311  -0.1109   0.3058   0.0242
  11 N   :1s    -0.0002   0.0013  -0.0145   0.0365   0.0019   0.0041  -0.1631
  12 N   :1s     0.0199  -0.0070   0.0618  -0.1943  -0.0087  -0.0264   1.0956
  13 N   :2px    0.4741   0.1879   0.0754   0.1607  -0.1914   0.1249  -0.0864
  14 N   :2py    0.1468  -0.5616  -0.0632   0.0422   0.6300  -0.3626   0.1412
  15 N   :2pz    0.0525  -0.2143   0.1619  -0.1572   0.2215  -0.1317  -0.5234
  16 H   :1s     0.2823   0.0008   0.1931   0.3125   0.0262  -0.0089  -0.1936
  17 H   :1s     0.3406   0.0035   0.1178   0.0761   0.0032   0.0040  -0.4058
  18 H   :1s    -0.1517   0.0055  -0.2063   0.0768  -0.0007   0.0262  -1.0767

    Orbital        15       16       17       18
   1 O   :1s     0.0024  -0.0564  -0.0220   0.0944
   2 O   :1s    -0.0359   0.3716   0.1473  -0.6881
   3 O   :2px   -0.0693  -0.2188   0.1957   0.2406
   4 O   :2py   -0.0437   0.1147   0.1448  -0.2162
   5 O   :2pz    0.0450  -0.4665  -0.2051   0.7105
   6 C   :1s     0.1142   0.1693   0.1021  -0.0401
   7 C   :1s    -0.7010  -1.0800  -0.6942   0.2313
   8 C   :2px    0.4297   0.2713  -0.9562   0.2367
   9 C   :2py   -0.0072   0.1468  -0.4252  -0.3677
  10 C   :2pz    0.3715  -0.1031   0.3071   1.0865
  11 N   :1s    -0.0920   0.0047  -0.0746  -0.0237
  12 N   :1s     0.6142  -0.0473   0.5738   0.2050
  13 N   :2px    0.3800  -0.6769  -0.3484  -0.6299
  14 N   :2py   -0.0110  -0.1750  -0.4397  -0.1497
  15 N   :2pz    0.3451  -0.1403   0.8458  -0.1386
  16 H   :1s     0.8741   0.7287  -0.3469   0.2231
  17 H   :1s    -0.8498   0.7003  -0.0092   0.3999
  18 H   :1s     0.1547  -0.2820   0.3728  -0.2413

  Total CPU  time used in SIRIUS :   0.73 seconds
  Total wall time used in SIRIUS :   0.73 seconds

 
     Date and time (Linux)  : Thu Jan 13 12:23:44 2022
     Host name              : loke                                    


                     .---------------------------------------.
                     | End of Wave Function Section (SIRIUS) |
                     `---------------------------------------'



        *****************************************************************
        ******** Output from **PROPE input processing for ABACUS ********
        *****************************************************************

     Environment effects are included through the PE library


 The following molecular properties will be calculated in this run:
 ------------------------------------------------------------------

 Default print level:        0

      Electronic excitation energies 
      Natural orbital connection is used
      for perturbation dependent basis sets.
     Environment effects are included through the PE library


 Changes of defaults for .EXCITA:
 --------------------------------

 Number of excitation energies:    4
 Print level          :    0
 Integral print level :    0
 Convergence threshold: 1.00E-04
 Maximum iterations   :   60
 Dipole strength

 Center of mass dipole origin  :   41.719678   41.516617   43.621518

 Center of mass gauge origin   :   41.719678   41.516617   43.621518


                 .------------------------------------------------.
                 | Starting in Static Property Section (ABACUS) - |
                 `------------------------------------------------'


 
     Date and time (Linux)  : Thu Jan 13 12:23:44 2022
     Host name              : loke                                    


                  **********************************************
                  *** ABACUS - Excitation energies (.EXCITA) ***
                  **********************************************


 2-el. integral transformation level 4: Total CPU and WALL times (sec)       0.004       0.004

 Sorting integrals to Dirac format: Total CPU and WALL times (sec)       0.001       0.000
  Time used in EXCITA     is       0.25 seconds


   ***************************************************************************
   ************************ FINAL RESULTS from ABACUS ************************
   ***************************************************************************


 
     Date and time (Linux)  : Thu Jan 13 12:23:44 2022
     Host name              : loke                                    


                             Molecular geometry (au)
                             -----------------------

 O         41.6174384507           40.6631267576           45.6406653708
 C         40.9673726637           41.3490973410           43.4674803271
 N         42.4791535637           42.4734843854           41.8574336686
 H         39.0190650289           40.9919391034           42.7909583744
 H         44.3291954401           42.8948933112           42.2996295819
 H         41.8385364074           42.9081213941           40.0735322066





                        Molecular wave function and energy
                        ----------------------------------

     Spatial symmetry   1 ( A   )
     Spin multiplicity  1
     2 * M_S            0
     State number       1
     Total charge       0

     Total energy       -166.8631527396 au (Hartrees)
                         -4540.57735968 eV
                           -438099.1400 kJ/mol
                           -104708.2075 kcal/mol


                   Scalar Breit-Pauli relativistic corrections
                   -------------------------------------------

     Darwin correction:                          0.2424391266 au
     Mass-velocity correction:                  -0.3106008816 au

     Total relativistic correction:             -0.0681617550 au ( 0.0408%)
     Non-relativistic + relativistic energy:  -166.9313144946 au



      (Note that these corrections are NOT included in the results below.)


                                  Dipole moment
                                  -------------

                 au               Debye          C m (/(10**-30)
              1.054361           2.679918           8.939244


                             Dipole moment components
                             ------------------------

                 au               Debye          C m (/(10**-30)

      x      0.24674911         0.62717364         2.09202607
      y      0.42161688         1.07164315         3.57461677
      z     -0.93436132        -2.37490942        -7.92184514


   Units:   1 a.u. =   2.54175 Debye 
            1 a.u. =   8.47835 (10**-30) C m (SI)




@               Singlet electronic excitation energies
                --------------------------------------

               ========================================
                 Sym.   Mode   Frequency    Frequency
                ex. st.  No.      (au)         (eV)
               ----------------------------------------
                   1      1     0.184800     5.028673
                   1      2     0.341655     9.296907
                   1      3     0.350537     9.538595
                   1      4     0.474347    12.907647
               ========================================


@               Electric transition dipole moments (au)
                ---------------------------------------

@        Mode    Frequency       Velocity/Frequency              Length
@         No.      (au)          x       y       z         x       y       z
@==============================================================================
@           1     0.184800     0.0285 -0.0717 -0.0300    0.0134 -0.0528 -0.0313
@           2     0.341655    -0.1649  0.1039  0.4690   -0.1469 -0.2134  0.8546
@           3     0.350537     0.0532 -0.4882  0.1438   -0.0075 -0.4839  0.5396
@           4     0.474347     0.0324 -0.1106 -0.0376   -0.0527  0.1596  0.0819
@------------------------------------------------------------------------------


@                              Oscillator strengths
                               --------------------

@  Oscillator strengths are dimensionless.

@  Sym.   Mode        Frequency     Oscillator-strength
@ ex. st.  No.           (eV)        velocity   length
@ -------------------------------------------------------
@  1        1         5.028673        0.0008   0.0005
@  1        2         9.296907        0.0587   0.1816
@  1        3         9.538595        0.0612   0.1228
@  1        4        12.907647        0.0046   0.0111


   Interatomic separations (in Angstrom):
   --------------------------------------

            O           C           N           H           H           H     
            ------      ------      ------      ------      ------      ------
 O     :    0.000000
 C     :    1.254035    0.000000
 N     :    2.265768    1.311461    0.000000
 H     :    2.048161    1.107631    2.052134    0.000000
 H     :    2.565114    2.053263    1.030983    2.996289    0.000000
 H     :    3.178671    2.029473    1.029056    2.306969    1.767727    0.000000


  Max    interatomic separation is    3.1787 Angstrom (    6.0068 Bohr)
  between atoms    6 and    1, "H     " and "O     ".

  Min HX interatomic separation is    1.0291 Angstrom (    1.9446 Bohr)

  Min YX interatomic separation is    1.2540 Angstrom (    2.3698 Bohr)


  Bond distances (Angstrom):
  --------------------------

                  atom 1     atom 2       distance
                  ------     ------       --------
  bond distance:  C          O            1.254035
  bond distance:  N          C            1.311461
  bond distance:  H          C            1.107631
  bond distance:  H          N            1.030983
  bond distance:  H          N            1.029056


  Bond angles (degrees):
  ----------------------

                  atom 1     atom 2     atom 3         angle
                  ------     ------     ------         -----
  bond angle:     O          C          N            124.039
  bond angle:     O          C          H            120.155
  bond angle:     N          C          H            115.801
  bond angle:     C          N          H            122.001
  bond angle:     C          N          H            119.763
  bond angle:     H          N          H            118.209


  Total CPU  time used in ABACUS:   0.26 seconds
  Total wall time used in ABACUS:   0.25 seconds


                   .-------------------------------------------.
                   | End of Static Property Section (ABACUS) - |
                   `-------------------------------------------'

  Total CPU  time used in DALTON:   1.00 seconds
  Total wall time used in DALTON:   1.00 seconds

 
     Date and time (Linux)  : Thu Jan 13 12:23:44 2022
     Host name              : loke                                    
