

     ************************************************************************
     *************** Dalton - An Electronic Structure Program ***************
     ************************************************************************

    This is output from DALTON release Dalton2020.0.beta (2020)
         ( Web site: http://daltonprogram.org )

   ----------------------------------------------------------------------------

    NOTE:
     
    Dalton is an experimental code for the evaluation of molecular
    properties using (MC)SCF, DFT, CI, and CC wave functions.
    The authors accept no responsibility for the performance of
    the code or for the correctness of the results.
     
    The code (in whole or part) is provided under a licence and
    is not to be reproduced for further distribution without
    the written permission of the authors or their representatives.
     
    See the home page "http://daltonprogram.org" for further information.
     
    If results obtained with this code are published,
    the appropriate citations would be both of:
     
       K. Aidas, C. Angeli, K. L. Bak, V. Bakken, R. Bast,
       L. Boman, O. Christiansen, R. Cimiraglia, S. Coriani,
       P. Dahle, E. K. Dalskov, U. Ekstroem,
       T. Enevoldsen, J. J. Eriksen, P. Ettenhuber, B. Fernandez,
       L. Ferrighi, H. Fliegl, L. Frediani, K. Hald, A. Halkier,
       C. Haettig, H. Heiberg, T. Helgaker, A. C. Hennum,
       H. Hettema, E. Hjertenaes, S. Hoest, I.-M. Hoeyvik,
       M. F. Iozzi, B. Jansik, H. J. Aa. Jensen, D. Jonsson,
       P. Joergensen, J. Kauczor, S. Kirpekar,
       T. Kjaergaard, W. Klopper, S. Knecht, R. Kobayashi, H. Koch,
       J. Kongsted, A. Krapp, K. Kristensen, A. Ligabue,
       O. B. Lutnaes, J. I. Melo, K. V. Mikkelsen, R. H. Myhre,
       C. Neiss, C. B. Nielsen, P. Norman, J. Olsen,
       J. M. H. Olsen, A. Osted, M. J. Packer, F. Pawlowski,
       T. B. Pedersen, P. F. Provasi, S. Reine, Z. Rinkevicius,
       T. A. Ruden, K. Ruud, V. Rybkin, P. Salek, C. C. M. Samson,
       A. Sanchez de Meras, T. Saue, S. P. A. Sauer,
       B. Schimmelpfennig, K. Sneskov, A. H. Steindal,
       K. O. Sylvester-Hvid, P. R. Taylor, A. M. Teale,
       E. I. Tellgren, D. P. Tew, A. J. Thorvaldsen, L. Thoegersen,
       O. Vahtras, M. A. Watson, D. J. D. Wilson, M. Ziolkowski
       and H. Agren,
       "The Dalton quantum chemistry program system",
       WIREs Comput. Mol. Sci. 2014, 4:269–284 (doi: 10.1002/wcms.1172)
     
    and
     
       Dalton, a molecular electronic structure program,
       Release Dalton2020.0.beta (2020), see http://daltonprogram.org
   ----------------------------------------------------------------------------

    Authors in alphabetical order (major contribution(s) in parenthesis):

  Kestutis Aidas,           Vilnius University,           Lithuania   (QM/MM)
  Celestino Angeli,         University of Ferrara,        Italy       (NEVPT2)
  Keld L. Bak,              UNI-C,                        Denmark     (AOSOPPA, non-adiabatic coupling, magnetic properties)
  Vebjoern Bakken,          University of Oslo,           Norway      (DALTON; geometry optimizer, symmetry detection)
  Radovan Bast,             UiT The Arctic U. of Norway,  Norway      (DALTON installation and execution frameworks)
  Pablo Baudin,             University of Valencia,       Spain       (Cholesky excitation energies)
  Linus Boman,              NTNU,                         Norway      (Cholesky decomposition and subsystems)
  Ove Christiansen,         Aarhus University,            Denmark     (CC module)
  Renzo Cimiraglia,         University of Ferrara,        Italy       (NEVPT2)
  Sonia Coriani,            Technical Univ. of Denmark,   Denmark     (CC module, MCD in RESPONS)
  Janusz Cukras,            University of Trieste,        Italy       (MChD in RESPONS)
  Paal Dahle,               University of Oslo,           Norway      (Parallelization)
  Erik K. Dalskov,          UNI-C,                        Denmark     (SOPPA)
  Thomas Enevoldsen,        Univ. of Southern Denmark,    Denmark     (SOPPA)
  Janus J. Eriksen,         Aarhus University,            Denmark     (Polarizable embedding model, TDA)
  Rasmus Faber,             University of Copenhagen,     Denmark     (Vib.avg. NMR with SOPPA, parallel AO-SOPPA)
  Tobias Fahleson,          KTH Stockholm,                Sweden      (Damped cubic response)
  Berta Fernandez,          U. of Santiago de Compostela, Spain       (doublet spin, ESR in RESPONS)
  Lara Ferrighi,            Aarhus University,            Denmark     (PCM Cubic response)
  Heike Fliegl,             University of Oslo,           Norway      (CCSD(R12))
  Luca Frediani,            UiT The Arctic U. of Norway,  Norway      (PCM)
  Bin Gao,                  UiT The Arctic U. of Norway,  Norway      (Gen1Int library)
  Christof Haettig,         Ruhr-University Bochum,       Germany     (CC module)
  Kasper Hald,              Aarhus University,            Denmark     (CC module)
  Asger Halkier,            Aarhus University,            Denmark     (CC module)
  Frederik Beyer Hansen,    University of Copenhagen,     Denmark     (Parallel AO-SOPPA)
  Erik D. Hedegaard,        Univ. of Southern Denmark,    Denmark     (Polarizable embedding model, QM/MM)
  Hanne Heiberg,            University of Oslo,           Norway      (geometry analysis, selected one-electron integrals)
  Trygve Helgaker,          University of Oslo,           Norway      (DALTON; ABACUS, ERI, DFT modules, London, and much more)
  Alf Christian Hennum,     University of Oslo,           Norway      (Parity violation)
  Hinne Hettema,            University of Auckland,       New Zealand (quadratic response in RESPONS; SIRIUS supersymmetry)
  Eirik Hjertenaes,         NTNU,                         Norway      (Cholesky decomposition)
  Pi A. B. Haase,           University of Copenhagen,     Denmark     (Triplet AO-SOPPA)
  Maria Francesca Iozzi,    University of Oslo,           Norway      (RPA)
  Christoph Jacob           TU Braunschweig               Germany     (Frozen density embedding model)
  Brano Jansik              Technical Univ. of Ostrava    Czech Rep.  (DFT cubic response)
  Hans Joergen Aa. Jensen,  Univ. of Southern Denmark,    Denmark     (DALTON; SIRIUS, RESPONS, ABACUS modules, London, and much more)
  Dan Jonsson,              UiT The Arctic U. of Norway,  Norway      (cubic response in RESPONS module)
  Poul Joergensen,          Aarhus University,            Denmark     (RESPONS, ABACUS, and CC modules)
  Maciej Kaminski,          University of Warsaw,         Poland      (CPPh in RESPONS)
  Joanna Kauczor,           Linkoeping University,        Sweden      (Complex polarization propagator (CPP) module)
  Sheela Kirpekar,          Univ. of Southern Denmark,    Denmark     (Mass-velocity & Darwin integrals)
  Wim Klopper,              KIT Karlsruhe,                Germany     (R12 code in CC, SIRIUS, and ABACUS modules)
  Stefan Knecht,            ETH Zurich,                   Switzerland (Parallel CI and MCSCF)
  Rika Kobayashi,           Australian National Univ.,    Australia   (DIIS in CC, London in MCSCF)
  Henrik Koch,              NTNU,                         Norway      (CC module, Cholesky decomposition)
  Jacob Kongsted,           Univ. of Southern Denmark,    Denmark     (Polarizable embedding model, QM/MM)
  Andrea Ligabue,           University of Modena,         Italy       (CTOCD, AOSOPPA)
  Nanna H. List             Univ. of Southern Denmark,    Denmark     (Polarizable embedding model)
  Ola B. Lutnaes,           University of Oslo,           Norway      (DFT Hessian)
  Juan I. Melo,             University of Buenos Aires,   Argentina   (LRESC, Relativistic Effects on NMR Shieldings)
  Kurt V. Mikkelsen,        University of Copenhagen,     Denmark     (MC-SCRF and QM/MM)
  Rolf H. Myhre,            NTNU,                         Norway      (Subsystems and CC3)
  Christian Neiss,          Univ. Erlangen-Nuernberg,     Germany     (CCSD(R12))
  Christian B. Nielsen,     University of Copenhagen,     Denmark     (QM/MM)
  Patrick Norman,           KTH Stockholm,                Sweden      (Cubic response and complex frequency response in RESPONS)
  Jeppe Olsen,              Aarhus University,            Denmark     (SIRIUS CI/density modules)
  Jogvan Magnus H. Olsen,   Univ. of Southern Denmark,    Denmark     (Polarizable embedding model, QM/MM)
  Anders Osted,             Copenhagen University,        Denmark     (QM/MM)
  Martin J. Packer,         University of Sheffield,      UK          (SOPPA)
  Filip Pawlowski,          Kazimierz Wielki University,  Poland      (CC3)
  Morten N. Pedersen,       Univ. of Southern Denmark,    Denmark     (Polarizable embedding model)
  Thomas B. Pedersen,       University of Oslo,           Norway      (Cholesky decomposition)
  Patricio F. Provasi,      University of Northeastern,   Argentina   (Analysis of coupling constants in localized orbitals)
  Zilvinas Rinkevicius,     KTH Stockholm,                Sweden      (open-shell DFT, ESR)
  Elias Rudberg,            KTH Stockholm,                Sweden      (DFT grid and basis info)
  Torgeir A. Ruden,         University of Oslo,           Norway      (Numerical derivatives in ABACUS)
  Kenneth Ruud,             UiT The Arctic U. of Norway,  Norway      (DALTON; ABACUS magnetic properties and much more)
  Pawel Salek,              KTH Stockholm,                Sweden      (DALTON; DFT code)
  Claire C. M. Samson       University of Karlsruhe       Germany     (Boys localization, r12 integrals in ERI)
  Alfredo Sanchez de Meras, University of Valencia,       Spain       (CC module, Cholesky decomposition)
  Trond Saue,               Paul Sabatier University,     France      (direct Fock matrix construction)
  Stephan P. A. Sauer,      University of Copenhagen,     Denmark     (SOPPA(CCSD), SOPPA prop., AOSOPPA, vibrational g-factors)
  Andre S. P. Gomes,        CNRS/Universite de Lille,     France      (Frozen density embedding model)
  Bernd Schimmelpfennig,    Forschungszentrum Karlsruhe,  Germany     (AMFI module)
  Anna K. Schnack-Petersen, University of Copenhagen,     Denmark     (RPA(D) and HRPA(D) properties in AOSOPPA)
  Kristian Sneskov,         Aarhus University,            Denmark     (Polarizable embedding model, QM/MM)
  Arnfinn H. Steindal,      UiT The Arctic U. of Norway,  Norway      (parallel QM/MM, Polarizable embedding model)
  Casper Steinmann,         Univ. of Southern Denmark,    Denmark     (QFIT, Polarizable embedding model)
  K. O. Sylvester-Hvid,     University of Copenhagen,     Denmark     (MC-SCRF)
  Peter R. Taylor,          VLSCI/Univ. of Melbourne,     Australia   (Symmetry handling ABACUS, integral transformation)
  Andrew M. Teale,          University of Nottingham,     England     (DFT-AC, DFT-D)
  David P. Tew,             University of Bristol,        England     (CCSD(R12))
  Olav Vahtras,             KTH Stockholm,                Sweden      (triplet response, spin-orbit, ESR, TDDFT, open-shell DFT)
  Lucas Visscher,           Vrije Universiteit Amsterdam, Netherlands (Frozen density embedding model)
  David J. Wilson,          La Trobe University,          Australia   (DFT Hessian and DFT magnetizabilities)
  Hans Agren,               KTH Stockholm,                Sweden      (SIRIUS module, RESPONS, MC-SCRF solvation model)
 --------------------------------------------------------------------------------

     Date and time (Linux)  : Mon Jul 27 22:03:08 2020
     Host name              : localhost.localdomain                   

 * Work memory size             :    64000000 =  488.28 megabytes.

 * Directories for basis set searches:
   1) /home/foeroyingur/Projects/dalton_devel/dalton/build_pde/test/pehf_geoopt
   2) /home/foeroyingur/Projects/dalton_devel/dalton/build_pde/basis


Compilation information
-----------------------

 Who compiled             | foeroyingur
 Host                     | localhost.localdomain
 System                   | Linux-5.7.8-200.fc32.x86_64
 CMake generator          | Unix Makefiles
 Processor                | x86_64
 64-bit integers          | OFF
 MPI                      | ON
 Fortran compiler         | /usr/lib64/openmpi/bin/mpif90
 Fortran compiler version | GNU Fortran (GCC) 10.1.1 20200507 (Red Hat 10.1.1-
                          | 1)
 C compiler               | /usr/lib64/openmpi/bin/mpicc
 C compiler version       | gcc (GCC) 10.1.1 20200507 (Red Hat 10.1.1-1)
 C++ compiler             | /usr/lib64/openmpi/bin/mpicxx
 C++ compiler version     | unknown
 BLAS                     | /lib64/libopenblas.so
 LAPACK                   | /lib64/liblapack.so
 Static linking           | OFF
 Last Git revision        | b058b5c1034ca5290b815a629f29812c8e37c450
 Git branch               | new-pde-fixes
 Configuration time       | 2020-07-27 20:05:45.713451

 * MPI parallel run using 6 processes.


   Content of the .dal input file
 ----------------------------------

**DALTON
.OPTIMIZE
.PELIB
*OPTIMIZE
.INITHE
.MAX IT
50
.CONDIT
3
.GRADIENT
1.0d-5
*PELIB
.ITERATIVE
1.0d-12
.LJ
3
1.76820000    0.15210000
0.00000000    0.00000000
0.00000000    0.00000000
**WAVE FUNCTIONS
.HF
*SCF INPUT
.THRESH
1.0d-6
**PROPERTIES
.VIBANA
**END OF


   Content of the .mol file
 ----------------------------

BASIS
STO-3G
Generated by PEAS 0.1.0
Some informative stuff...
AtomTypes=2 Charge=0 Angstrom NoSymmetry
Charge=8.0 Atoms=1
O   -0.065000    0.011000    0.000000
Charge=1.0 Atoms=2
H    0.574000    0.282000   -0.659000
H    0.451000   -0.462000    0.653000



       *******************************************************************
       *********** Output from DALTON general input processing ***********
       *******************************************************************

 --------------------------------------------------------------------------------
   Overall default print level:    0
   Print level for DALTON.STAT:    1

    Parallel calculation using MPI
    AO-direct calculation (in sections where implemented)
    "Old" integral transformation used (limited to max 255 basis functions)
    Environment effects are included (PElib)
 --------------------------------------------------------------------------------


 Chosen parameters for *OPTIMI :
 -------------------------------

 Default 1st order method will be used:   BFGS update.
 Optimization will be performed in Cartesian coordinates.
 Initial Hessian will be calculated.

 Maximum # of iterations:        50

 Trust region method will be used to control step (default).

 Convergence threshold for gradient set to :      1.00D-05
 Convergence threshold for energy set to   :      1.00D-06
 Convergence threshold for step set to     :      1.00D-04
 Number of convergence criteria set to     :   3


              >>>>>>>>>>>>>>>>>>>>>>>>>>>>>>>>>>>>>>>>>>>>>>>>>>>>>
              >>>>>>>>>> 1st Order Geometry Optimization >>>>>>>>>>
              >>>>>>>>>>>>>>>>>>>>>>>>>>>>>>>>>>>>>>>>>>>>>>>>>>>>>


 Reading .mol file to determine number of atoms for parallel runs.

  Reading potential input file for polarizable embedding calculation

    .------------------------------------------------.
    | Information from polarizable embedding library |
    `------------------------------------------------´

      Number of classical sites:     42

      Multipole moments upto 2nd order.

      Dipole-dipole polarizabilities.

      Iterative solver for induced moments will be used
      with convergence threshold: 1.0E-12
      Total charge of classical region:    0.0000
 


   ****************************************************************************
   *************** Output of molecule and basis set information ***************
   ****************************************************************************


    The two title cards from your ".mol" input:
    ------------------------------------------------------------------------
 1: Generated by PEAS 0.1.0                                                 
 2: Some informative stuff...                                               
    ------------------------------------------------------------------------

  Coordinates are entered in Angstrom and converted to atomic units.
          - Conversion factor : 1 bohr = 0.52917721 A

  Atomic type no.    1
  --------------------
  Nuclear charge:   8.00000
  Number of symmetry independent centers:    1
  Number of basis sets to read;    2
  Basis set file used for this atomic type with Z =   8 :
     "/home/foeroyingur/Projects/dalton_devel/dalton/build_pde/basis/STO-3G"

  Atomic type no.    2
  --------------------
  Nuclear charge:   1.00000
  Number of symmetry independent centers:    2
  Number of basis sets to read;    2
  Basis set file used for this atomic type with Z =   1 :
     "/home/foeroyingur/Projects/dalton_devel/dalton/build_pde/basis/STO-3G"


                         SYMGRP: Point group information
                         -------------------------------

@    Point group: C1 


                                 Isotopic Masses
                                 ---------------

                           O          15.994915
                           H           1.007825
                           H           1.007825

                       Total mass:    18.010565 amu
                       Natural abundance:  99.730 %

 Center-of-mass coordinates (a.u.):   -0.000698   -0.000573   -0.000634
 Center-of-mass coordinates (Angs):   -0.000369   -0.000303   -0.000336


  Atoms and basis sets
  --------------------

  Number of atom types :    2
  Total number of atoms:    3

  Basis set used is "STO-3G" from the basis set library.

  label    atoms   charge   prim   cont     basis
  ----------------------------------------------------------------------
  O           1    8.0000    15     5      [6s3p|2s1p]                                        
  H           2    1.0000     3     1      [3s|1s]                                            
  ----------------------------------------------------------------------
  total:      3   10.0000    21     7
  ----------------------------------------------------------------------

  Threshold for neglecting AO integrals:  1.00D-12


  Cartesian Coordinates (a.u.)
  ----------------------------

  Total number of coordinates:    9
  O       :     1  x  -0.1228321981    2  y   0.0207869874    3  z   0.0000000000
  H       :     4  x   1.0847027957    5  y   0.5329027672    6  z  -1.2453295164
  H       :     7  x   0.8522664824    8  y  -0.8730534697    9  z   1.2339911596


   Interatomic separations (in Angstrom):
   --------------------------------------

            O           H           H     
            ------      ------      ------
 O     :    0.000000
 H     :    0.957101    0.000000
 H     :    0.957285    1.513278    0.000000


  Max    interatomic separation is    1.5133 Angstrom (    2.8597 Bohr)
  between atoms    3 and    2, "H     " and "H     ".

  Min HX interatomic separation is    0.9571 Angstrom (    1.8087 Bohr)


  Bond distances (Angstrom):
  --------------------------

                  atom 1     atom 2       distance
                  ------     ------       --------
  bond distance:  H          O            0.957101
  bond distance:  H          O            0.957285


  Bond angles (degrees):
  ----------------------

                  atom 1     atom 2     atom 3         angle
                  ------     ------     ------         -----
  bond angle:     H          O          H            104.460




 Principal moments of inertia (u*A**2) and principal axes
 --------------------------------------------------------

   IA       0.615276         -0.081058   -0.491687    0.866991
   IB       1.153964          0.985070   -0.172066   -0.005484
   IC       1.769240          0.151877    0.853602    0.498293


 Rotational constants
 --------------------

@    The molecule is planar.

               A                   B                   C

         821386.2833         437950.3289         285647.5302 MHz
           27.398497           14.608451            9.528176 cm-1


@  Nuclear repulsion energy :    9.195173291795 Hartree


                     .---------------------------------------.
                     | Starting in Integral Section (HERMIT) |
                     `---------------------------------------'



 ***************************************************************************************
 ****************** Output from **INTEGRALS input processing (HERMIT) ******************
 ***************************************************************************************


 - Using defaults, no **INTEGRALS input found

 Default print level:        1

 Calculation of one-electron Hamiltonian integrals.

 Center of mass  (bohr):     -0.000697618623     -0.000573346010     -0.000634465348
 Operator center (bohr):      0.000000000000      0.000000000000      0.000000000000
 Gauge origin    (bohr):      0.000000000000      0.000000000000      0.000000000000
 Dipole origin   (bohr):      0.000000000000      0.000000000000      0.000000000000


     ************************************************************************
     ************************** Output from HERINT **************************
     ************************************************************************



                      Nuclear contribution to dipole moments
                      --------------------------------------

                 au               Debye          C m (/(10**-30)

      x      0.95431169         2.42561822         8.09099148
      y     -0.17385480        -0.44189480        -1.47400241
      z     -0.01133836        -0.02881923        -0.09613059


  Total CPU  time used in HERMIT:   0.00 seconds
  Total wall time used in HERMIT:   0.00 seconds


                        .----------------------------------.
                        | End of Integral Section (HERMIT) |
                        `----------------------------------'



                   .--------------------------------------------.
                   | Starting in Wave Function Section (SIRIUS) |
                   `--------------------------------------------'


 *** Output from Huckel module :

     Using EWMO model:          T
     Using EHT  model:          F
     Number of Huckel orbitals each symmetry:    7

 EWMO - Energy Weighted Maximum Overlap - is a Huckel type method,
        which normally is better than Extended Huckel Theory.
 Reference: Linderberg and Ohrn, Propagators in Quantum Chemistry (Wiley, 1973)

 Huckel EWMO eigenvalues for symmetry :  1
          -20.684969      -1.611753      -0.778136      -0.688460      -0.616200
           -0.232245      -0.168138

 **********************************************************************
 *SIRIUS* a direct, restricted step, second order MCSCF program       *
 **********************************************************************

 
     Date and time (Linux)  : Mon Jul 27 22:03:08 2020
     Host name              : localhost.localdomain                   

 Title lines from ".mol" input file:
     Generated by PEAS 0.1.0                                                 
     Some informative stuff...                                               

 Print level on unit LUPRI =   2 is   0
 Print level on unit LUW4  =   2 is   5

@    Restricted, closed shell Hartree-Fock calculation.
 Fock matrices are calculated directly and in parallel without use of integrals on disk.

 Initial molecular orbitals are obtained according to
 ".MOSTART EWMO  " input option

@    QM part is embedded in an environment :

@         Model: PE

     Wave function specification
     ============================

     Wave function environment is modeled using the
     polarizable embedding model (PE library).

@    Wave function type        --- PE-HF ---
@    Number of closed shell electrons          10
@    Number of electrons in active shells       0
@    Total charge of the molecule               0

@    Spin multiplicity and 2 M_S                1         0
@    Total number of symmetries                 1 (point group: C1 )
@    Reference state symmetry                   1 (irrep name : A  )

     Orbital specifications
     ======================
@    Abelian symmetry species          All |    1
@                                          |  A  
                                       --- |  ---
@    Occupied SCF orbitals               5 |    5
@    Secondary orbitals                  2 |    2
@    Total number of orbitals            7 |    7
@    Number of basis functions           7 |    7

     Optimization information
     ========================
@    Number of configurations                 1
@    Number of orbital rotations             10
     ------------------------------------------
@    Total number of variables               11

     Maximum number of Fock   iterations      0
     Maximum number of DIIS   iterations     60
     Maximum number of QC-SCF iterations     60
     Threshold for SCF convergence     1.00D-06


 ***********************************************
 ***** DIIS acceleration of SCF iterations *****
 ***********************************************

 C1-DIIS algorithm; max error vectors =    8

 Iter      Total energy     Embedding energy      Error norm     Delta(E)
 -----------------------------------------------------------------------------
   1  Screening settings (-IFTHRS, JTDIIS, DIFDEN, times)   -5    1    F  2.52D-03  2.00D-03
@  1  -74.9917443679     -8.096769946001E-02    7.12574D-01   -7.50D+01
      Virial theorem: -V/T =      2.005242
@    MULPOP   O      -0.45; H       0.23; H       0.23; 
   1  Level shift: doubly occupied orbital energies shifted by -2.00D-01
 -----------------------------------------------------------------------------
   2  Screening settings (-IFTHRS, JTDIIS, DIFDEN, times)   -6    2    F  7.95D-04  1.00D-03
@  2  -75.0285297279     -7.538116398285E-02    2.09284D-01   -3.68D-02
      Virial theorem: -V/T =      2.005119
@    MULPOP   O      -0.45; H       0.23; H       0.22; 
   2  Level shift: doubly occupied orbital energies shifted by -1.00D-01
 -----------------------------------------------------------------------------
   3  Screening settings (-IFTHRS, JTDIIS, DIFDEN, times)   -7    3    F  7.54D-04  0.00D+00
@  3  -75.0327605706     -7.285237971869E-02    3.06670D-02   -4.23D-03
      Virial theorem: -V/T =      2.004448
@    MULPOP   O      -0.45; H       0.23; H       0.22; 
   3  Level shift: doubly occupied orbital energies shifted by -2.50D-02
 -----------------------------------------------------------------------------
   4  Screening settings (-IFTHRS, JTDIIS, DIFDEN, times)   -8    4    F  8.69D-04  1.00D-03
@  4  -75.0328505579     -7.248912444459E-02    1.36630D-03   -9.00D-05
      Virial theorem: -V/T =      2.004293
@    MULPOP   O      -0.45; H       0.24; H       0.22; 
 -----------------------------------------------------------------------------
   5  Screening settings (-IFTHRS, JTDIIS, DIFDEN, times)   -9    5    F  8.00D-04  1.00D-03
@  5  -75.0328508711     -7.249015611299E-02    3.30258D-04   -3.13D-07
      Virial theorem: -V/T =      2.004297
@    MULPOP   O      -0.45; H       0.24; H       0.22; 
 -----------------------------------------------------------------------------
   6  Screening settings (-IFTHRS, JTDIIS, DIFDEN, times)  -10    6    F  7.51D-04  1.00D-03
@  6  -75.0328508921     -7.249408097555E-02    2.65995D-05   -2.10D-08
      Virial theorem: -V/T =      2.004297
@    MULPOP   O      -0.45; H       0.24; H       0.22; 
 -----------------------------------------------------------------------------
   7  Screening settings (-IFTHRS, JTDIIS, DIFDEN, times)  -10    7    F  7.50D-04  1.00D-03
@  7  -75.0328508922     -7.249392152062E-02    5.26731D-06   -1.27D-10
      Virial theorem: -V/T =      2.004297
@    MULPOP   O      -0.45; H       0.24; H       0.22; 
 -----------------------------------------------------------------------------
   8  Screening settings (-IFTHRS, JTDIIS, DIFDEN, times)  -10    8    F  7.56D-04  1.00D-03
@  8  -75.0328508922     -7.249394869648E-02    9.52537D-07   -5.16D-12

@ *** DIIS converged in   8 iterations !
@     Converged SCF energy, gradient:    -75.032850892214    9.53D-07
    - total time used in SIRFCK :              0.00 seconds


 *** SCF orbital energy analysis ***
   (incl. contribution from polarizable embedding potential)

 Number of electrons :   10
 Orbital occupations :    5

 Sym       Hartree-Fock orbital energies

1 A     -20.22346520    -1.26916846    -0.61402363    -0.47383114    -0.40033359
          0.62802783     0.75613372

    E(LUMO) :     0.62802783 au (symmetry 1)
  - E(HOMO) :    -0.40033359 au (symmetry 1)
  ------------------------------------------
    gap     :     1.02836142 au

    .--------------------------------------------------.
    | Final results from polarizable embedding library |
    `--------------------------------------------------´

        Polarizable embedding energy contributions:
       ---------------------------------------------

       Electrostatic contributions:
            Electronic                -0.141970058345
            Nuclear                    0.111046874002
            Multipole                 -0.119281937934
            Total                     -0.150205122277

       Polarization contributions:
            Electronic                -0.068853745545
            Nuclear                    0.063982138143
            Multipole                 -0.044082871048
            Total                     -0.048954478450

       LJ energy contribution:
            Dispersion 6              -0.011141957974
            Repulsion 12               0.018525672071
            Total                      0.007383714097

       Total PE energy:               -0.072493948696
            (excl. multipole-multipole interaction energy)

 --- Writing SIRIFC interface file


                           +---------------------------+
                           ! Writing FOCKMAT in siropt !
                           +---------------------------+


 CPU and wall time for SCF :       0.115       0.116


                       .-----------------------------------.
                       | --- Final results from SIRIUS --- |
                       `-----------------------------------'


@    Spin multiplicity:           1
@    Spatial symmetry:            1 ( irrep  A   in C1  )
@    Total charge of molecule:    0

@    Final HF energy:             -75.032850892214                 
@    Nuclear repulsion:             9.195173291795
@    Electronic energy:           -84.155530235312
@    Embedding energy:             -0.072493948696

@    Final gradient norm:           0.000000952537

 
     Date and time (Linux)  : Mon Jul 27 22:03:08 2020
     Host name              : localhost.localdomain                   

File label for MO orbitals:  27Jul20   FOCKDIIS

 (Only coefficients > 0.0100 are printed.)

 Molecular orbitals for symmetry species 1  (A  )
 ------------------------------------------------

    Orbital         1        2        3        4        5        6        7
   1 O   :1s    -0.9941   0.2356  -0.0018   0.0935   0.0086   0.1345  -0.0048
   2 O   :1s    -0.0267  -0.8478   0.0090  -0.4909  -0.0428  -0.8960   0.0326
   3 O   :2px   -0.0042  -0.1083   0.0538   0.7720   0.2123  -0.7090   0.1006
   4 O   :2py    0.0007   0.0143   0.3206  -0.2003   0.8375   0.1434   0.4737
   5 O   :2pz   -0.0000  -0.0030  -0.5375  -0.0492   0.5011  -0.0282  -0.8479
   6 H   :1s     0.0060  -0.1488   0.4218   0.2608   0.0106   0.7759  -0.8772
   7 H   :1s     0.0060  -0.1531  -0.4312   0.2627   0.0276   0.8307   0.8185

  Total CPU  time used in SIRIUS :   0.12 seconds
  Total wall time used in SIRIUS :   0.12 seconds

 
     Date and time (Linux)  : Mon Jul 27 22:03:08 2020
     Host name              : localhost.localdomain                   


                     .---------------------------------------.
                     | End of Wave Function Section (SIRIUS) |
                     `---------------------------------------'


 Initial molecular Hessian will be calculated now.


@ WARNING. Analytical molecular Hessian is approximate because embedding contributions are neglected.

 Center of mass dipole origin  :   -0.000698   -0.000573   -0.000634

 Center of mass gauge origin   :   -0.000698   -0.000573   -0.000634


                 .------------------------------------------------.
                 | Starting in Static Property Section (ABACUS) - |
                 `------------------------------------------------'



@ WARNING. Analytical molecular Hessian is approximate because embedding contributions are neglected.

 
     Date and time (Linux)  : Mon Jul 27 22:03:08 2020
     Host name              : localhost.localdomain                   


            +---------------------------------------------------------+
            ! Gradient elements calculated directly and from symmetry !
            +---------------------------------------------------------+



        Coordinate    Direct calc.     Tra.-rot. sym.   Difference
        ----------------------------------------------------------

        O    x        0.0572965164    -0.0014987216     0.0587952380
        O    y       -0.0048278444     0.0002605086    -0.0050883530
        O    z       -0.0057805073     0.0000105359    -0.0057910431
        H    x       -0.0301373110    -0.0014072058    -0.0287301052
        H    y       -0.0111582144    -0.0131823903     0.0020241760
        H    x       -0.0250550582     0.0029059274    -0.0279609856



 WARNING from TRAROT:

 Largest deviation from tra-rot symmetry is in gradient element  1:  5.88E-02


   ***************************************************************************
   ************************ FINAL RESULTS from ABACUS ************************
   ***************************************************************************


 
     Date and time (Linux)  : Mon Jul 27 22:03:09 2020
     Host name              : localhost.localdomain                   

 WARNING: warnings have been issued, please check the output above !


                             Molecular geometry (au)
                             -----------------------

 O         -0.1228321981            0.0207869874            0.0000000000
 H          1.0847027957            0.5329027672           -1.2453295164
 H          0.8522664824           -0.8730534697            1.2339911596





                        Molecular wave function and energy
                        ----------------------------------

     Spatial symmetry   1 ( A   )
     Spin multiplicity  1
     2 * M_S            0
     State number       1
     Total charge       0

     Total energy        -75.0328508922 au (Hartrees)
                         -2041.74773400 eV
                           -196998.7196 kJ/mol
                            -47083.8240 kcal/mol


                   Scalar Breit-Pauli relativistic corrections
                   -------------------------------------------

     Darwin correction:                          0.1293614288 au
     Mass-velocity correction:                  -0.1668041759 au

     Total relativistic correction:             -0.0374427471 au ( 0.0499%)
     Non-relativistic + relativistic energy:   -75.0702936394 au



      (Note that these corrections are NOT included in the results below.)


                             Molecular gradient (au)
                             -----------------------

 O          0.0572965164           -0.0048278444           -0.0057805073
 H         -0.0301373110           -0.0111582144            0.0230110222
 H         -0.0250550582            0.0129218817           -0.0230215581





                              Molecular Hessian (au)
                              ----------------------

           O    x      O    y      O    z      H    x      H    y      H    z

 O    x    4.276978
 O    y   -0.643131    0.298776
 O    z   -0.214608   -0.414438    0.725952

 H    x   -2.237367    0.124845    0.460507    1.326741
 H    y    0.236657   -0.098130    0.149413   -0.043315    0.091640
 H    z    0.283575    0.178405   -0.366853   -0.334488   -0.184313    0.393732

 H    x   -2.039611    0.487085   -0.224441    0.939792   -0.189295    0.050912
 H    y    0.406474   -0.200646    0.262565   -0.099597    0.011140    0.005908
 H    z   -0.068967    0.236033   -0.359099   -0.114491    0.032440   -0.026879


           H    x      H    y      H    z

 H    x    1.113913
 H    y   -0.306877    0.189506
 H    z    0.183458   -0.268472    0.385979





                                  Dipole moment
                                  -------------

                 au               Debye          C m (/(10**-30)
              0.781277           1.985808           6.623942


                             Dipole moment components
                             ------------------------

                 au               Debye          C m (/(10**-30)

      x      0.77131063         1.96047594         6.53944383
      y     -0.12122206        -0.30811573        -1.02776344
      z     -0.02790811        -0.07093534        -0.23661482


   Units:   1 a.u. =   2.54175 Debye 
            1 a.u. =   8.47835 (10**-30) C m (SI)




   Interatomic separations (in Angstrom):
   --------------------------------------

            O           H           H     
            ------      ------      ------
 O     :    0.000000
 H     :    0.957101    0.000000
 H     :    0.957285    1.513278    0.000000


  Max    interatomic separation is    1.5133 Angstrom (    2.8597 Bohr)
  between atoms    3 and    2, "H     " and "H     ".

  Min HX interatomic separation is    0.9571 Angstrom (    1.8087 Bohr)


  Bond distances (Angstrom):
  --------------------------

                  atom 1     atom 2       distance
                  ------     ------       --------
  bond distance:  H          O            0.957101
  bond distance:  H          O            0.957285


  Bond angles (degrees):
  ----------------------

                  atom 1     atom 2     atom 3         angle
                  ------     ------     ------         -----
  bond angle:     H          O          H            104.460


  Total CPU  time used in ABACUS:   0.28 seconds
  Total wall time used in ABACUS:   0.28 seconds


                   .-------------------------------------------.
                   | End of Static Property Section (ABACUS) - |
                   `-------------------------------------------'

Initial Hessian is analytical Hessian

Initial Hessian has been calculated in Cartesian coordinates.


 Predicted energy change       -0.013609303784770


  Step in diagonal representation
  -------------------------------


               Column   1     Column   2     Column   3     Column   4     Column   5     Column   6     Column   7     Column   8
       1      -0.49305278     0.04416026     0.01100214     0.01786268     0.04047536    -0.00521741     0.05218571     0.00171347

               Column   9
       1      -0.01067143
    ==== End of matrix output ====


           :::::::::::::::::::::::::::::::::::::::::::::::::::::::::::
           ::::::::::::::: Optimization Control Center :::::::::::::::
           :::::::::::::::::::::::::::::::::::::::::::::::::::::::::::



                                Next geometry (au)
                                ------------------

 O         -0.2264298336           -0.3211542857           -0.1632729810
 H          1.0673953660            0.7416822171           -1.1571222186
 H          0.8639410260           -0.7232963761            1.3804498395





                             Optimization information
                             ------------------------

 Iteration number               :       0
 End of optimization            :       F 
 Energy at this geometry is     :     -75.032850892214
 Norm of gradient               :       0.078908850273
 Norm of step                   :       0.499996930782
 Updated trust radius           :       0.500000000000
 Total effective Hessian index  :       4




 **************************************************************************************
 ****************** Output of molecule and basis set info suppressed ******************
 **************************************************************************************



                     .---------------------------------------.
                     | Starting in Integral Section (HERMIT) |
                     `---------------------------------------'



 ***************************************************************************************
 ****************** Output from **INTEGRALS input processing (HERMIT) ******************
 ***************************************************************************************


 - Using defaults, no **INTEGRALS input found

 Default print level:       -1

 Calculation of one-electron Hamiltonian integrals.

 Center of mass  (bohr):     -0.093016340255     -0.284183521812     -0.132503466322
 Operator center (bohr):      0.000000000000      0.000000000000      0.000000000000
 Gauge origin    (bohr):      0.000000000000      0.000000000000      0.000000000000
 Dipole origin   (bohr):      0.000000000000      0.000000000000      0.000000000000


                      Nuclear contribution to dipole moments
                      --------------------------------------

                 au               Debye          C m (/(10**-30)

      x      0.11989772         0.30474960         1.01653523
      y     -2.55084844        -6.48360962       -21.62699375
      z     -1.08285623        -2.75234582        -9.18083742


  Total CPU  time used in HERMIT:   0.00 seconds
  Total wall time used in HERMIT:   0.00 seconds


                        .----------------------------------.
                        | End of Integral Section (HERMIT) |
                        `----------------------------------'



                   .--------------------------------------------.
                   | Starting in Wave Function Section (SIRIUS) |
                   `--------------------------------------------'

* Read MO coefficients from SIRIUS.RST with label "NEWORB  " and header info: 27Jul20  FOCKDIIS

 **********************************************************************
 *SIRIUS* a direct, restricted step, second order MCSCF program       *
 **********************************************************************

 (Wave function specification suppressed here, see output above for initial geometry.)


 ***********************************************
 ***** DIIS acceleration of SCF iterations *****
 ***********************************************

 C1-DIIS algorithm; max error vectors =    8

 Iter      Total energy     Embedding energy      Error norm     Delta(E)
 -----------------------------------------------------------------------------
   1  Screening settings (-IFTHRS, JTDIIS, DIFDEN, times)  -10    1    F  2.78D-03  2.00D-03
@  1  -74.9950445051     -7.441097156268E-02    3.85901D-01    3.78D-02
      Virial theorem: -V/T =      2.003769
@    MULPOP   O      -0.46; H       0.24; H       0.22; 
 -----------------------------------------------------------------------------
   2  Screening settings (-IFTHRS, JTDIIS, DIFDEN, times)   -7    2    F  1.06D-03  1.00D-03
@  2  -75.0218620328     -7.046700471110E-02    1.75032D-01   -2.68D-02
      Virial theorem: -V/T =      2.005905
@    MULPOP   O      -0.39; H       0.21; H       0.19; 
 -----------------------------------------------------------------------------
   3  Screening settings (-IFTHRS, JTDIIS, DIFDEN, times)   -7    3    F  1.08D-03  2.00D-03
@  3  -75.0291671041     -6.924672750020E-02    3.28345D-02   -7.31D-03
      Virial theorem: -V/T =      2.006109
@    MULPOP   O      -0.39; H       0.20; H       0.18; 
 -----------------------------------------------------------------------------
   4  Screening settings (-IFTHRS, JTDIIS, DIFDEN, times)   -8    4    F  1.08D-03  1.00D-03
@  4  -75.0294309101     -6.916840418957E-02    2.72696D-03   -2.64D-04
      Virial theorem: -V/T =      2.006046
@    MULPOP   O      -0.39; H       0.20; H       0.18; 
 -----------------------------------------------------------------------------
   5  Screening settings (-IFTHRS, JTDIIS, DIFDEN, times)   -9    5    F  1.05D-03  1.00D-03
@  5  -75.0294323671     -6.920266121747E-02    5.09074D-04   -1.46D-06
      Virial theorem: -V/T =      2.006050
@    MULPOP   O      -0.39; H       0.20; H       0.18; 
 -----------------------------------------------------------------------------
   6  Screening settings (-IFTHRS, JTDIIS, DIFDEN, times)   -9    6    F  1.09D-03  1.00D-03
@  6  -75.0294324076     -6.919271465684E-02    1.55607D-04   -4.05D-08
      Virial theorem: -V/T =      2.006056
@    MULPOP   O      -0.39; H       0.20; H       0.18; 
 -----------------------------------------------------------------------------
   7  Screening settings (-IFTHRS, JTDIIS, DIFDEN, times)  -10    7    F  1.10D-03  1.00D-03
@  7  -75.0294324100     -6.919655210205E-02    2.18046D-05   -2.39D-09
      Virial theorem: -V/T =      2.006054
@    MULPOP   O      -0.39; H       0.20; H       0.18; 
 -----------------------------------------------------------------------------
   8  Screening settings (-IFTHRS, JTDIIS, DIFDEN, times)  -10    8    F  1.16D-03  2.00D-03
@  8  -75.0294324101     -6.919669021111E-02    2.58277D-06   -7.84D-11
      Virial theorem: -V/T =      2.006054
@    MULPOP   O      -0.39; H       0.20; H       0.18; 
 -----------------------------------------------------------------------------
   9  Screening settings (-IFTHRS, JTDIIS, DIFDEN, times)  -10    9    F  1.36D-03  1.00D-03
@  9  -75.0294324101     -6.919672554954E-02    6.62905D-07   -1.21D-12

@ *** DIIS converged in   9 iterations !
@     Converged SCF energy, gradient:    -75.029432410084    6.63D-07
    - total time used in SIRFCK :              0.00 seconds


 *** SCF orbital energy analysis ***
   (incl. contribution from polarizable embedding potential)

 Number of electrons :   10
 Orbital occupations :    5

 Sym       Hartree-Fock orbital energies

1 A     -20.23098047    -1.24008290    -0.56561549    -0.46499724    -0.39473331
          0.57404904     0.66677098

    E(LUMO) :     0.57404904 au (symmetry 1)
  - E(HOMO) :    -0.39473331 au (symmetry 1)
  ------------------------------------------
    gap     :     0.96878234 au

    .--------------------------------------------------.
    | Final results from polarizable embedding library |
    `--------------------------------------------------´

        Polarizable embedding energy contributions:
       ---------------------------------------------

       Electrostatic contributions:
            Electronic                -0.135350364007
            Nuclear                    0.107827605462
            Multipole                 -0.119281937934
            Total                     -0.146804696479

       Polarization contributions:
            Electronic                -0.046442386339
            Nuclear                    0.042948368479
            Multipole                 -0.043713834314
            Total                     -0.047207852174

       LJ energy contribution:
            Dispersion 6              -0.010499740110
            Repulsion 12               0.016033625279
            Total                      0.005533885169

       Total PE energy:               -0.069196725550
            (excl. multipole-multipole interaction energy)

 --- Writing SIRIFC interface file


                           +---------------------------+
                           ! Writing FOCKMAT in siropt !
                           +---------------------------+


 CPU and wall time for SCF :       0.165       0.168


                       .-----------------------------------.
                       | --- Final results from SIRIUS --- |
                       `-----------------------------------'


@    Spin multiplicity:           1
@    Spatial symmetry:            1 ( irrep  A   in C1  )
@    Total charge of molecule:    0

@    Final HF energy:             -75.029432410084                 
@    Nuclear repulsion:             8.589249660082
@    Electronic energy:           -83.549485344616
@    Embedding energy:             -0.069196725550

@    Final gradient norm:           0.000000662905

 
     Date and time (Linux)  : Mon Jul 27 22:03:09 2020
     Host name              : localhost.localdomain                   

  Total CPU  time used in SIRIUS :   0.17 seconds
  Total wall time used in SIRIUS :   0.17 seconds

 
     Date and time (Linux)  : Mon Jul 27 22:03:09 2020
     Host name              : localhost.localdomain                   


                     .---------------------------------------.
                     | End of Wave Function Section (SIRIUS) |
                     `---------------------------------------'


 Step rejected because ratio between
        actual energy change :    0.00341848
 and predicted energy change :   -0.01360930
                          is :         -0.25
 Minimum for quadratic model :     0.369678
 Norm of new step            :     0.184838


 **************************************************************************************
 ****************** Output of molecule and basis set info suppressed ******************
 **************************************************************************************



                     .---------------------------------------.
                     | Starting in Integral Section (HERMIT) |
                     `---------------------------------------'



 ***************************************************************************************
 ****************** Output from **INTEGRALS input processing (HERMIT) ******************
 ***************************************************************************************


 - Using defaults, no **INTEGRALS input found

 Default print level:       -1

 Calculation of one-electron Hamiltonian integrals.

 Center of mass  (bohr):     -0.034825800260     -0.105417731014     -0.049383507124
 Operator center (bohr):      0.000000000000      0.000000000000      0.000000000000
 Gauge origin    (bohr):      0.000000000000      0.000000000000      0.000000000000
 Dipole origin   (bohr):      0.000000000000      0.000000000000      0.000000000000


                      Nuclear contribution to dipole moments
                      --------------------------------------

                 au               Debye          C m (/(10**-30)

      x      0.64584737         1.64158018         5.47572208
      y     -1.05257658        -2.67538263        -8.92411585
      z     -0.40745472        -1.03564654        -3.45454500


  Total CPU  time used in HERMIT:   0.01 seconds
  Total wall time used in HERMIT:   0.00 seconds


                        .----------------------------------.
                        | End of Integral Section (HERMIT) |
                        `----------------------------------'



                   .--------------------------------------------.
                   | Starting in Wave Function Section (SIRIUS) |
                   `--------------------------------------------'

* Read MO coefficients from SIRIUS.RST with label "NEWORB  " and header info: 27Jul20  FOCKDIIS

 **********************************************************************
 *SIRIUS* a direct, restricted step, second order MCSCF program       *
 **********************************************************************

 (Wave function specification suppressed here, see output above for initial geometry.)


 ***********************************************
 ***** DIIS acceleration of SCF iterations *****
 ***********************************************

 C1-DIIS algorithm; max error vectors =    8

 Iter      Total energy     Embedding energy      Error norm     Delta(E)
 -----------------------------------------------------------------------------
   1  Screening settings (-IFTHRS, JTDIIS, DIFDEN, times)  -10    1    F  2.20D-03  3.00D-03
@  1  -75.0211273302     -6.926531369996E-02    2.49891D-01    8.31D-03
      Virial theorem: -V/T =      2.004486
@    MULPOP   O      -0.40; H       0.21; H       0.19; 
 -----------------------------------------------------------------------------
   2  Screening settings (-IFTHRS, JTDIIS, DIFDEN, times)   -7    2    F  1.20D-03  1.00D-03
@  2  -75.0317298311     -7.216246599817E-02    1.11805D-01   -1.06D-02
      Virial theorem: -V/T =      2.004325
@    MULPOP   O      -0.44; H       0.23; H       0.21; 
 -----------------------------------------------------------------------------
   3  Screening settings (-IFTHRS, JTDIIS, DIFDEN, times)   -7    3    F  1.18D-03  2.00D-03
@  3  -75.0344997727     -7.224971646193E-02    1.64972D-02   -2.77D-03
      Virial theorem: -V/T =      2.004820
@    MULPOP   O      -0.43; H       0.23; H       0.21; 
 -----------------------------------------------------------------------------
   4  Screening settings (-IFTHRS, JTDIIS, DIFDEN, times)   -8    4    F  1.20D-03  1.00D-03
@  4  -75.0345526014     -7.246591227153E-02    1.45731D-03   -5.28D-05
      Virial theorem: -V/T =      2.004733
@    MULPOP   O      -0.44; H       0.23; H       0.21; 
 -----------------------------------------------------------------------------
   5  Screening settings (-IFTHRS, JTDIIS, DIFDEN, times)   -9    5    F  1.20D-03  1.00D-03
@  5  -75.0345528506     -7.248670722692E-02    1.96773D-04   -2.49D-07
      Virial theorem: -V/T =      2.004717
@    MULPOP   O      -0.44; H       0.23; H       0.21; 
 -----------------------------------------------------------------------------
   6  Screening settings (-IFTHRS, JTDIIS, DIFDEN, times)  -10    6    F  1.23D-03  1.00D-03
@  6  -75.0345528565     -7.248357019197E-02    3.13113D-05   -5.90D-09
      Virial theorem: -V/T =      2.004717
@    MULPOP   O      -0.44; H       0.23; H       0.21; 
 -----------------------------------------------------------------------------
   7  Screening settings (-IFTHRS, JTDIIS, DIFDEN, times)  -10    7    F  1.23D-03  1.00D-03
@  7  -75.0345528567     -7.248412567871E-02    7.62501D-06   -1.64D-10
      Virial theorem: -V/T =      2.004717
@    MULPOP   O      -0.44; H       0.23; H       0.21; 
 -----------------------------------------------------------------------------
   8  Screening settings (-IFTHRS, JTDIIS, DIFDEN, times)  -10    8    F  1.07D-03  1.00D-03
@  8  -75.0345528567     -7.248386101388E-02    3.04103D-06   -5.76D-12
      Virial theorem: -V/T =      2.004717
@    MULPOP   O      -0.44; H       0.23; H       0.21; 
 -----------------------------------------------------------------------------
   9  Screening settings (-IFTHRS, JTDIIS, DIFDEN, times)  -10    9    F  1.19D-03  1.00D-03
@  9  -75.0345528567     -7.248392549157E-02    3.24353D-07   -7.96D-13

@ *** DIIS converged in   9 iterations !
@     Converged SCF energy, gradient:    -75.034552856709    3.24D-07
    - total time used in SIRFCK :              0.00 seconds


 *** SCF orbital energy analysis ***
   (incl. contribution from polarizable embedding potential)

 Number of electrons :   10
 Orbital occupations :    5

 Sym       Hartree-Fock orbital energies

1 A     -20.22332754    -1.26186769    -0.60425754    -0.46826773    -0.39859307
          0.61682890     0.73954666

    E(LUMO) :     0.61682890 au (symmetry 1)
  - E(HOMO) :    -0.39859307 au (symmetry 1)
  ------------------------------------------
    gap     :     1.01542197 au

    .--------------------------------------------------.
    | Final results from polarizable embedding library |
    `--------------------------------------------------´

        Polarizable embedding energy contributions:
       ---------------------------------------------

       Electrostatic contributions:
            Electronic                -0.139767566002
            Nuclear                    0.109345812249
            Multipole                 -0.119281937934
            Total                     -0.149703691687

       Polarization contributions:
            Electronic                -0.060317707303
            Nuclear                    0.055921222999
            Multipole                 -0.043944329082
            Total                     -0.048340813386

       LJ energy contribution:
            Dispersion 6              -0.010843688771
            Repulsion 12               0.017122330419
            Total                      0.006278641648

       Total PE energy:               -0.072483925492
            (excl. multipole-multipole interaction energy)

 --- Writing SIRIFC interface file


                           +---------------------------+
                           ! Writing FOCKMAT in siropt !
                           +---------------------------+


 CPU and wall time for SCF :       0.172       0.175


                       .-----------------------------------.
                       | --- Final results from SIRIUS --- |
                       `-----------------------------------'


@    Spin multiplicity:           1
@    Spatial symmetry:            1 ( irrep  A   in C1  )
@    Total charge of molecule:    0

@    Final HF energy:             -75.034552856709                 
@    Nuclear repulsion:             9.063564217761
@    Electronic energy:           -84.025633148978
@    Embedding energy:             -0.072483925492

@    Final gradient norm:           0.000000324353

 
     Date and time (Linux)  : Mon Jul 27 22:03:09 2020
     Host name              : localhost.localdomain                   

  Total CPU  time used in SIRIUS :   0.17 seconds
  Total wall time used in SIRIUS :   0.18 seconds

 
     Date and time (Linux)  : Mon Jul 27 22:03:09 2020
     Host name              : localhost.localdomain                   


                     .---------------------------------------.
                     | End of Wave Function Section (SIRIUS) |
                     `---------------------------------------'


Acceptable step has been found.

 Center of mass dipole origin  :   -0.034826   -0.105418   -0.049384

 Center of mass gauge origin   :   -0.034826   -0.105418   -0.049384


                 .------------------------------------------------.
                 | Starting in Static Property Section (ABACUS) - |
                 `------------------------------------------------'


 
     Date and time (Linux)  : Mon Jul 27 22:03:09 2020
     Host name              : localhost.localdomain                   


            +---------------------------------------------------------+
            ! Gradient elements calculated directly and from symmetry !
            +---------------------------------------------------------+



        Coordinate    Direct calc.     Tra.-rot. sym.   Difference
        ----------------------------------------------------------

        O    x        0.0324175540     0.0351486204    -0.0027310663
        O    y       -0.0035207358     0.0003443639    -0.0038650997
        O    z       -0.0033975468     0.0025460983    -0.0059436451
        H    x       -0.0172304623    -0.0188115977     0.0015811354
        H    y       -0.0061057686    -0.0066749237     0.0005691550
        H    y        0.0041283652     0.0063305598    -0.0022021946



 WARNING from TRAROT:

 Largest deviation from tra-rot symmetry is in gradient element  3:  5.94E-03


   ***************************************************************************
   ************************ FINAL RESULTS from ABACUS ************************
   ***************************************************************************


 
     Date and time (Linux)  : Mon Jul 27 22:03:09 2020
     Host name              : localhost.localdomain                   

 WARNING: warnings have been issued, please check the output above !
  Total CPU  time used in ABACUS:   0.10 seconds
  Total wall time used in ABACUS:   0.10 seconds


                   .-------------------------------------------.
                   | End of Static Property Section (ABACUS) - |
                   `-------------------------------------------'


 Predicted energy change       -0.001625537253366


  Step in diagonal representation
  -------------------------------


               Column   1     Column   2     Column   3     Column   4     Column   5     Column   6     Column   7     Column   8
       1       0.09678030     0.07342661    -0.02893967     0.13144209    -0.03341514     0.00770313     0.00956721     0.00041608

               Column   9
       1      -0.00500171
    ==== End of matrix output ====


           :::::::::::::::::::::::::::::::::::::::::::::::::::::::::::
           ::::::::::::::: Optimization Control Center :::::::::::::::
           :::::::::::::::::::::::::::::::::::::::::::::::::::::::::::



                                Next geometry (au)
                                ------------------

 O         -0.1634465616           -0.1331040461           -0.0261588839
 H          1.0318188463            0.6611729319           -1.2095105047
 H          0.9468378524           -0.7035120806            1.3673196287





                             Optimization information
                             ------------------------

 Iteration number               :       1
 End of optimization            :       F 
 Energy at this geometry is     :     -75.034552856709
 Energy change from last geom.  :      -0.001701964495
 Predicted change               :      -0.013609303785
 Ratio, actual/predicted change :       0.125058895149
 Norm of gradient               :       0.044212279682
 Norm of step                   :       0.184837906781
 Updated trust radius           :       0.184837763891
 Total effective Hessian index  :       3




 **************************************************************************************
 ****************** Output of molecule and basis set info suppressed ******************
 **************************************************************************************



                     .---------------------------------------.
                     | Starting in Integral Section (HERMIT) |
                     `---------------------------------------'



 ***************************************************************************************
 ****************** Output from **INTEGRALS input processing (HERMIT) ******************
 ***************************************************************************************


 - Using defaults, no **INTEGRALS input found

 Default print level:       -1

 Calculation of one-electron Hamiltonian integrals.

 Center of mass  (bohr):     -0.034433909932     -0.120576914501     -0.014400722231
 Operator center (bohr):      0.000000000000      0.000000000000      0.000000000000
 Gauge origin    (bohr):      0.000000000000      0.000000000000      0.000000000000
 Dipole origin   (bohr):      0.000000000000      0.000000000000      0.000000000000


                      Nuclear contribution to dipole moments
                      --------------------------------------

                 au               Debye          C m (/(10**-30)

      x      0.67108421         1.70572580         5.68968884
      y     -1.10717152        -2.81414912        -9.38699104
      z     -0.05146195        -0.13080321        -0.43631256


  Total CPU  time used in HERMIT:   0.01 seconds
  Total wall time used in HERMIT:   0.01 seconds


                        .----------------------------------.
                        | End of Integral Section (HERMIT) |
                        `----------------------------------'



                   .--------------------------------------------.
                   | Starting in Wave Function Section (SIRIUS) |
                   `--------------------------------------------'

* Read MO coefficients from SIRIUS.RST with label "NEWORB  " and header info: 27Jul20  FOCKDIIS

 **********************************************************************
 *SIRIUS* a direct, restricted step, second order MCSCF program       *
 **********************************************************************

 (Wave function specification suppressed here, see output above for initial geometry.)


 ***********************************************
 ***** DIIS acceleration of SCF iterations *****
 ***********************************************

 C1-DIIS algorithm; max error vectors =    8

 Iter      Total energy     Embedding energy      Error norm     Delta(E)
 -----------------------------------------------------------------------------
   1  Screening settings (-IFTHRS, JTDIIS, DIFDEN, times)  -10    1    F  2.57D-03  2.00D-03
@  1  -75.0336753559     -7.340611488646E-02    9.80315D-02    8.78D-04
      Virial theorem: -V/T =      2.004949
@    MULPOP   O      -0.44; H       0.23; H       0.21; 
 -----------------------------------------------------------------------------
   2  Screening settings (-IFTHRS, JTDIIS, DIFDEN, times)   -7    2    F  1.26D-03  1.00D-03
@  2  -75.0351675800     -7.276583586999E-02    4.03818D-02   -1.49D-03
      Virial theorem: -V/T =      2.005183
@    MULPOP   O      -0.43; H       0.22; H       0.20; 
 -----------------------------------------------------------------------------
   3  Screening settings (-IFTHRS, JTDIIS, DIFDEN, times)   -8    3    F  1.18D-03  1.00D-03
@  3  -75.0355027766     -7.271449322401E-02    5.67033D-03   -3.35D-04
      Virial theorem: -V/T =      2.005143
@    MULPOP   O      -0.43; H       0.22; H       0.20; 
 -----------------------------------------------------------------------------
   4  Screening settings (-IFTHRS, JTDIIS, DIFDEN, times)   -8    4    F  1.40D-03  2.00D-03
@  4  -75.0355096806     -7.269374043222E-02    1.44885D-03   -6.90D-06
      Virial theorem: -V/T =      2.005149
@    MULPOP   O      -0.43; H       0.22; H       0.20; 
 -----------------------------------------------------------------------------
   5  Screening settings (-IFTHRS, JTDIIS, DIFDEN, times)   -9    5    F  1.22D-03  1.00D-03
@  5  -75.0355100997     -7.269543719124E-02    1.32087D-04   -4.19D-07
      Virial theorem: -V/T =      2.005148
@    MULPOP   O      -0.43; H       0.22; H       0.20; 
 -----------------------------------------------------------------------------
   6  Screening settings (-IFTHRS, JTDIIS, DIFDEN, times)  -10    6    F  1.29D-03  1.00D-03
@  6  -75.0355101026     -7.269429605575E-02    2.74529D-05   -2.96D-09
      Virial theorem: -V/T =      2.005148
@    MULPOP   O      -0.43; H       0.22; H       0.20; 
 -----------------------------------------------------------------------------
   7  Screening settings (-IFTHRS, JTDIIS, DIFDEN, times)  -10    7    F  1.29D-03  2.00D-03
@  7  -75.0355101027     -7.269437127327E-02    6.21178D-06   -1.35D-10
      Virial theorem: -V/T =      2.005148
@    MULPOP   O      -0.43; H       0.22; H       0.20; 
 -----------------------------------------------------------------------------
   8  Screening settings (-IFTHRS, JTDIIS, DIFDEN, times)  -10    8    F  1.51D-03  1.00D-03
@  8  -75.0355101028     -7.269440809486E-02    3.85649D-07   -7.89D-12

@ *** DIIS converged in   8 iterations !
@     Converged SCF energy, gradient:    -75.035510102755    3.86D-07
    - total time used in SIRFCK :              0.00 seconds


 *** SCF orbital energy analysis ***
   (incl. contribution from polarizable embedding potential)

 Number of electrons :   10
 Orbital occupations :    5

 Sym       Hartree-Fock orbital energies

1 A     -20.22461196    -1.25467594    -0.59350621    -0.46648168    -0.39770024
          0.60340777     0.72016116

    E(LUMO) :     0.60340777 au (symmetry 1)
  - E(HOMO) :    -0.39770024 au (symmetry 1)
  ------------------------------------------
    gap     :     1.00110800 au

    .--------------------------------------------------.
    | Final results from polarizable embedding library |
    `--------------------------------------------------´

        Polarizable embedding energy contributions:
       ---------------------------------------------

       Electrostatic contributions:
            Electronic                -0.138837688484
            Nuclear                    0.108216157568
            Multipole                 -0.119281937934
            Total                     -0.149903468851

       Polarization contributions:
            Electronic                -0.058994378514
            Nuclear                    0.054731734509
            Multipole                 -0.043841980003
            Total                     -0.048104624009

       LJ energy contribution:
            Dispersion 6              -0.010787239003
            Repulsion 12               0.016818985834
            Total                      0.006031746830

       Total PE energy:               -0.072694408095
            (excl. multipole-multipole interaction energy)

 --- Writing SIRIFC interface file


                           +---------------------------+
                           ! Writing FOCKMAT in siropt !
                           +---------------------------+


 CPU and wall time for SCF :       0.177       0.180


                       .-----------------------------------.
                       | --- Final results from SIRIUS --- |
                       `-----------------------------------'


@    Spin multiplicity:           1
@    Spatial symmetry:            1 ( irrep  A   in C1  )
@    Total charge of molecule:    0

@    Final HF energy:             -75.035510102755                 
@    Nuclear repulsion:             8.919972424478
@    Electronic energy:           -83.882788119138
@    Embedding energy:             -0.072694408095

@    Final gradient norm:           0.000000385649

 
     Date and time (Linux)  : Mon Jul 27 22:03:09 2020
     Host name              : localhost.localdomain                   

  Total CPU  time used in SIRIUS :   0.18 seconds
  Total wall time used in SIRIUS :   0.18 seconds

 
     Date and time (Linux)  : Mon Jul 27 22:03:09 2020
     Host name              : localhost.localdomain                   


                     .---------------------------------------.
                     | End of Wave Function Section (SIRIUS) |
                     `---------------------------------------'

 Trust radius set equal to norm of step.
 Updated trust radius   0.18484

 Center of mass dipole origin  :   -0.034434   -0.120577   -0.014401

 Center of mass gauge origin   :   -0.034434   -0.120577   -0.014401


                 .------------------------------------------------.
                 | Starting in Static Property Section (ABACUS) - |
                 `------------------------------------------------'


 
     Date and time (Linux)  : Mon Jul 27 22:03:09 2020
     Host name              : localhost.localdomain                   


            +---------------------------------------------------------+
            ! Gradient elements calculated directly and from symmetry !
            +---------------------------------------------------------+



        Coordinate    Direct calc.     Tra.-rot. sym.   Difference
        ----------------------------------------------------------

        O    x        0.0067125090     0.0202185380    -0.0135060289
        O    y       -0.0010259627     0.0069176603    -0.0079436230
        O    z       -0.0124665975    -0.0075975792    -0.0048690183
        H    x       -0.0080031426    -0.0142911920     0.0062880494
        H    y       -0.0005453215    -0.0034076869     0.0028623654
        H    x       -0.0006873203    -0.0059273460     0.0052400257



 WARNING from TRAROT:

 Largest deviation from tra-rot symmetry is in gradient element  1:  1.35E-02


   ***************************************************************************
   ************************ FINAL RESULTS from ABACUS ************************
   ***************************************************************************


 
     Date and time (Linux)  : Mon Jul 27 22:03:09 2020
     Host name              : localhost.localdomain                   

 WARNING: warnings have been issued, please check the output above !
  Total CPU  time used in ABACUS:   0.10 seconds
  Total wall time used in ABACUS:   0.10 seconds


                   .-------------------------------------------.
                   | End of Static Property Section (ABACUS) - |
                   `-------------------------------------------'


 Predicted energy change       -0.000979153323966


  Step in diagonal representation
  -------------------------------


               Column   1     Column   2     Column   3     Column   4     Column   5     Column   6     Column   7     Column   8
       1      -0.08452002     0.05481496     0.10378513     0.10984398     0.01146450     0.03135407     0.00396582     0.00701246

               Column   9
       1      -0.00029209
    ==== End of matrix output ====


           :::::::::::::::::::::::::::::::::::::::::::::::::::::::::::
           ::::::::::::::: Optimization Control Center :::::::::::::::
           :::::::::::::::::::::::::::::::::::::::::::::::::::::::::::



                                Next geometry (au)
                                ------------------

 O         -0.1544972687           -0.0498996924            0.0992428688
 H          0.9842814881            0.7181795523           -1.1650420892
 H          0.9999356993           -0.6930813741            1.3992732882





                             Optimization information
                             ------------------------

 Iteration number               :       2
 End of optimization            :       F 
 Energy at this geometry is     :     -75.035510102755
 Energy change from last geom.  :      -0.000957246046
 Predicted change               :      -0.001625537253
 Ratio, actual/predicted change :       0.588879795932
 Norm of gradient               :       0.017625680059
 Norm of step                   :       0.184837405332
 Updated trust radius           :       0.184837906781
 Total effective Hessian index  :       2




 **************************************************************************************
 ****************** Output of molecule and basis set info suppressed ******************
 **************************************************************************************



                     .---------------------------------------.
                     | Starting in Integral Section (HERMIT) |
                     `---------------------------------------'



 ***************************************************************************************
 ****************** Output from **INTEGRALS input processing (HERMIT) ******************
 ***************************************************************************************


 - Using defaults, no **INTEGRALS input found

 Default print level:       -1

 Calculation of one-electron Hamiltonian integrals.

 Center of mass  (bohr):     -0.026175025288     -0.042910745247      0.101243093105
 Operator center (bohr):      0.000000000000      0.000000000000      0.000000000000
 Gauge origin    (bohr):      0.000000000000      0.000000000000      0.000000000000
 Dipole origin   (bohr):      0.000000000000      0.000000000000      0.000000000000


                      Nuclear contribution to dipole moments
                      --------------------------------------

                 au               Debye          C m (/(10**-30)

      x      0.74823904         1.90183381         6.34383474
      y     -0.37409936        -0.95086567        -3.17174646
      z      1.02817415         2.61335785         8.71722346


  Total CPU  time used in HERMIT:   0.01 seconds
  Total wall time used in HERMIT:   0.01 seconds


                        .----------------------------------.
                        | End of Integral Section (HERMIT) |
                        `----------------------------------'



                   .--------------------------------------------.
                   | Starting in Wave Function Section (SIRIUS) |
                   `--------------------------------------------'

* Read MO coefficients from SIRIUS.RST with label "NEWORB  " and header info: 27Jul20  FOCKDIIS

 **********************************************************************
 *SIRIUS* a direct, restricted step, second order MCSCF program       *
 **********************************************************************

 (Wave function specification suppressed here, see output above for initial geometry.)


 ***********************************************
 ***** DIIS acceleration of SCF iterations *****
 ***********************************************

 C1-DIIS algorithm; max error vectors =    8

 Iter      Total energy     Embedding energy      Error norm     Delta(E)
 -----------------------------------------------------------------------------
   1  Screening settings (-IFTHRS, JTDIIS, DIFDEN, times)  -10    1    F  2.56D-03  3.00D-03
@  1  -75.0348906233     -7.316974073605E-02    7.65386D-02    6.19D-04
      Virial theorem: -V/T =      2.005049
@    MULPOP   O      -0.43; H       0.22; H       0.21; 
 -----------------------------------------------------------------------------
   2  Screening settings (-IFTHRS, JTDIIS, DIFDEN, times)   -7    2    F  1.35D-03  2.00D-03
@  2  -75.0358355561     -7.356280689941E-02    3.21263D-02   -9.45D-04
      Virial theorem: -V/T =      2.005003
@    MULPOP   O      -0.43; H       0.22; H       0.21; 
 -----------------------------------------------------------------------------
   3  Screening settings (-IFTHRS, JTDIIS, DIFDEN, times)   -8    3    F  1.29D-03  1.00D-03
@  3  -75.0360496912     -7.359886546099E-02    3.60703D-03   -2.14D-04
      Virial theorem: -V/T =      2.005058
@    MULPOP   O      -0.43; H       0.22; H       0.21; 
 -----------------------------------------------------------------------------
   4  Screening settings (-IFTHRS, JTDIIS, DIFDEN, times)   -9    4    F  1.25D-03  1.00D-03
@  4  -75.0360521736     -7.362564047254E-02    1.01686D-03   -2.48D-06
      Virial theorem: -V/T =      2.005045
@    MULPOP   O      -0.43; H       0.22; H       0.21; 
 -----------------------------------------------------------------------------
   5  Screening settings (-IFTHRS, JTDIIS, DIFDEN, times)   -9    5    F  1.50D-03  1.00D-03
@  5  -75.0360523760     -7.362277496219E-02    1.28786D-04   -2.02D-07
      Virial theorem: -V/T =      2.005046
@    MULPOP   O      -0.43; H       0.22; H       0.21; 
 -----------------------------------------------------------------------------
   6  Screening settings (-IFTHRS, JTDIIS, DIFDEN, times)  -10    6    F  1.25D-03  1.00D-03
@  6  -75.0360523787     -7.362249092969E-02    1.38390D-05   -2.67D-09
      Virial theorem: -V/T =      2.005046
@    MULPOP   O      -0.43; H       0.22; H       0.21; 
 -----------------------------------------------------------------------------
   7  Screening settings (-IFTHRS, JTDIIS, DIFDEN, times)  -10    7    F  1.38D-03  2.00D-03
@  7  -75.0360523787     -7.362255987338E-02    3.99714D-06   -3.25D-11
      Virial theorem: -V/T =      2.005046
@    MULPOP   O      -0.43; H       0.22; H       0.21; 
 -----------------------------------------------------------------------------
   8  Screening settings (-IFTHRS, JTDIIS, DIFDEN, times)  -10    8    F  1.25D-03  2.00D-03
@  8  -75.0360523787     -7.362252285866E-02    4.31815D-07   -3.35D-12

@ *** DIIS converged in   8 iterations !
@     Converged SCF energy, gradient:    -75.036052378686    4.32D-07
    - total time used in SIRFCK :              0.00 seconds


[...]

    .--------------------------------------------------.
    | Final results from polarizable embedding library |
    `--------------------------------------------------´

        Polarizable embedding energy contributions:
       ---------------------------------------------

       Electrostatic contributions:
            Electronic                -0.169968401484
            Nuclear                    0.137216346472
            Multipole                 -0.119281937934
            Total                     -0.152033992947

       Polarization contributions:
            Electronic                -0.077814713329
            Nuclear                    0.072491436847
            Multipole                 -0.044089727850
            Total                     -0.049413004333

       LJ energy contribution:
            Dispersion 6              -0.011250584457
            Repulsion 12               0.018811971427
            Total                      0.007561386970

       Total PE energy:               -0.074603672376
            (excl. multipole-multipole interaction energy)

 --- Writing SIRIFC interface file


                           +---------------------------+
                           ! Writing FOCKMAT in siropt !
                           +---------------------------+


 CPU and wall time for SCF :       0.105       0.106


                       .-----------------------------------.
                       | --- Final results from SIRIUS --- |
                       `-----------------------------------'


@    Spin multiplicity:           1
@    Spatial symmetry:            1 ( irrep  A   in C1  )
@    Total charge of molecule:    0

@    Final HF energy:             -75.037410916408                 
@    Nuclear repulsion:             8.927676792991
@    Electronic energy:           -83.890484037023
@    Embedding energy:             -0.074603672376

@    Final gradient norm:           0.000000263763

 
     Date and time (Linux)  : Mon Jul 27 22:03:28 2020
     Host name              : localhost.localdomain                   

  Total CPU  time used in SIRIUS :   0.11 seconds
  Total wall time used in SIRIUS :   0.11 seconds

 
     Date and time (Linux)  : Mon Jul 27 22:03:28 2020
     Host name              : localhost.localdomain                   


                     .---------------------------------------.
                     | End of Wave Function Section (SIRIUS) |
                     `---------------------------------------'


 Center of mass dipole origin  :   -0.118830   -0.267995    0.577505

 Center of mass gauge origin   :   -0.118830   -0.267995    0.577505


                 .------------------------------------------------.
                 | Starting in Static Property Section (ABACUS) - |
                 `------------------------------------------------'



@ WARNING. Analytical molecular Hessian is approximate because embedding contributions are neglected.

 
     Date and time (Linux)  : Mon Jul 27 22:03:28 2020
     Host name              : localhost.localdomain                   

 Largest deviation from tra-rot symmetry is in gradient element  1:  7.58E-07


   ***************************************************************************
   ************************ FINAL RESULTS from ABACUS ************************
   ***************************************************************************


 
     Date and time (Linux)  : Mon Jul 27 22:03:28 2020
     Host name              : localhost.localdomain                   
  Total CPU  time used in ABACUS:   0.15 seconds
  Total wall time used in ABACUS:   0.15 seconds


                   .-------------------------------------------.
                   | End of Static Property Section (ABACUS) - |
                   `-------------------------------------------'



                   Analytical gradient in symmetry coordinates
                   -------------------------------------------



                         Gradient in symmetry coordinates
                         --------------------------------

                                    -0.00000001
                                     0.00000014
                                    -0.00000005
                                     0.00000008
                                    -0.00000007
                                     0.00000003
                                    -0.00000001
                                    -0.00000006
                                     0.00000005


                        Gradient in cartesian coordinates
                        ---------------------------------

 O         -0.0000000148            0.0000001371           -0.0000000531
 H          0.0000000828           -0.0000000697            0.0000000346
 H         -0.0000000072           -0.0000000568            0.0000000456


                    Numerical hessian in symmetry coordinates
                    -----------------------------------------



                         Hessian in symmetry coordinates
                         -------------------------------


        Notation: irrep/coordinate number

           1/   1      1/   2      1/   3      1/   4      1/   5      1/   6
 1/   1    0.666734
 1/   2   -0.058662    0.095727
 1/   3   -0.037788   -0.173212    0.798617
 1/   4   -0.378669   -0.039641    0.335580    0.360693
 1/   5   -0.016232   -0.018726    0.044475    0.026451    0.015935
 1/   6    0.229446    0.055482   -0.347593   -0.289872   -0.054623    0.381051
 1/   7   -0.256085    0.101812   -0.292434    0.017476   -0.016047    0.060768
 1/   8    0.076491   -0.054993    0.134575    0.009573   -0.000232    0.000772
 1/   9   -0.187544    0.122911   -0.426925   -0.049057    0.013769   -0.032691

           1/   7      1/   8      1/   9
 1/   7    0.239852
 1/   8   -0.078870    0.053264
 1/   9    0.233220   -0.130892    0.458169



                           Cartesian Hessian in GSPHES
                           ---------------------------

            O      x    O      y    O      z    H      x    H      y    H      z

 O      x    0.666734
 O      y   -0.058662    0.095727
 O      z   -0.037788   -0.173212    0.798617

 H      x   -0.378669   -0.039641    0.335580    0.360693
 H      y   -0.016232   -0.018726    0.044475    0.026451    0.015935
 H      z    0.229446    0.055482   -0.347593   -0.289872   -0.054623    0.381051

 H      x   -0.256085    0.101812   -0.292434    0.017476   -0.016047    0.060768
 H      y    0.076491   -0.054993    0.134575    0.009573   -0.000232    0.000772
 H      z   -0.187544    0.122911   -0.426925   -0.049057    0.013769   -0.032691


            H      x    H      y    H      z

 H      x    0.239852
 H      y   -0.078870    0.053264
 H      z    0.233220   -0.130892    0.458169


          Number of modes with zero frequency:   0


                 Vibrational frequencies harmonic approximation:
                 -----------------------------------------------

                     Mode     cm-1       hartrees  
                       1      174.93    0.000797
                       1       64.15    0.000292
                       1      209.83    0.000956
                       1      484.04    0.002205
                       1      434.52    0.001980
                       1     4391.49    0.020009
                       1     2174.30    0.009907
                       1      635.47    0.002895
                       1     4150.27    0.018910


 Normal coordinates:
 -------------------

          1            1            1            1            1            1
    0.4581099    0.0222809    0.0854534    0.0011305   -0.0848871    0.0141405
   -0.1149110    0.3493941    0.2658066   -0.0255017   -0.0848743    0.0143655
   -0.0590068   -0.2968076    0.3420823   -0.0856281   -0.0025610   -0.0654027
    0.5156133    0.0538440    0.2820077    0.5244868    0.0417009   -0.5610648
    0.4049528    0.6995175    0.4178461   -0.1892740    0.9153164   -0.0658868
    0.0590643   -0.2248611    0.5569618    0.4303080    0.2444893    0.5572701
    0.4339006    0.0307760   -0.1253249   -0.5781945   -0.1160362    0.3348999
   -0.3717718    0.3986995    0.1530351    0.1621579   -0.2671546   -0.1505742
   -0.1167578   -0.2943430    0.4489634    0.3678806   -0.0378125    0.4804174
                                        
          1            1            1
   -0.0676021    0.0102765   -0.0509458
    0.0091859   -0.0772595    0.0091949
   -0.0047654    0.0123388   -0.0132123
    0.4807630   -0.0636177    0.4040719
   -0.1660728    0.2195667    0.0594811
    0.4697481   -0.0276676   -0.4512513
    0.5977866    0.2412921    0.3960654
    0.0278462    0.9242999   -0.1984318
   -0.3972683    0.1679247    0.6560965
                                        


@Number of gradient calculations done:        19


 *************************************************************************************
 ****************** Numerical derivatives have now been calculated. ******************
 *************************************************************************************



                 .------------------------------------------------.
                 | Starting in Static Property Section (ABACUS) - |
                 `------------------------------------------------'



@ WARNING. Analytical molecular Hessian is approximate because embedding contributions are neglected.

 
     Date and time (Linux)  : Mon Jul 27 22:03:28 2020
     Host name              : localhost.localdomain                   

 Largest deviation from tra-rot symmetry is in gradient element  1:  7.58E-07


   ***************************************************************************
   ************************ FINAL RESULTS from ABACUS ************************
   ***************************************************************************


 
     Date and time (Linux)  : Mon Jul 27 22:03:28 2020
     Host name              : localhost.localdomain                   


                           Dipole moment gradient (au)
                           ---------------------------

                       Ex             Ey             Ez

        O    x    -0.14718458    -0.05503679    -0.01989756
        O    y    -0.05282795    -0.63638888    -0.08999762
        O    z    -0.02102043    -0.11633405    -0.18227290

        H    x     0.01228135    -0.00274327     0.15769402
        H    y     0.01300616     0.31790050     0.01191231
        H    z     0.13618244     0.03311954     0.12478666

        H    x     0.10635020     0.05955471    -0.12934303
        H    y     0.05053365     0.32420934     0.05103079
        H    z    -0.11358044     0.06300403     0.14107329





                            +-------------------------+
                            ! APT Population Analysis !
                            +-------------------------+


      [ Reference : J. Cioslowski, J.Am.Chem.Soc. 111 (1989) 8333 ]

                            O        -0.321949
                            H         0.151656
                            H         0.190544


INFO: tra-rot projection in vibrational analysis changed to          F


   ****************************************************************************
   *************** ABACUS - ROTATIONAL AND VIBRATIONAL ANALYSIS ***************
   ****************************************************************************


 Norm of (unprojected) molecular gradient (au) :     0.00000000


 Conversion factors used:

    Hartree to (cm)-1      : 219474.62934
    a.m.u.  to a.u.        :   1822.88848
    Bohr    to Angstrom    :  0.529177211
    a.u.    to A**4amu-1   :   142.943572
    a.u.    to km (mol)-1  :      974.864


 Vibrational analysis for parent molecule only.


                         Isotopic Molecule No. 1
                         ======================= 


                                 Isotopic Masses
                                 ---------------

                           O          15.994915
                           H           1.007825
                           H           1.007825

                       Total mass:    18.010565 amu
                       Natural abundance:  99.730 %

 Center-of-mass coordinates (a.u.):   -0.118830   -0.267995    0.577505
 Center-of-mass coordinates (Angs):   -0.062882   -0.141817    0.305602


 Principal moments of inertia (u*A**2) and principal axes
 --------------------------------------------------------

   IA       0.696483         -0.101683   -0.224754    0.969096
   IB       1.177885          0.988460   -0.132777    0.072921
   IC       1.874368          0.112284    0.965327    0.235661


 Rotational constants
 --------------------

@    The molecule is planar.

               A                   B                   C

         725616.0060         429056.3742         269626.4135 MHz
           24.203945           14.311780            8.993769 cm-1

 The number of translational and rotational coordinates in VIBNOR 0
 is not equal to 5 or 6.


  Vibrational Frequencies and IR Intensities
  ------------------------------------------

  mode   irrep        frequency             IR intensity
  ============================================================
                  cm-1       hartrees     km/mol   (D/A)**2/amu
  ------------------------------------------------------------
   1      A      4391.49    0.020009      1.508   0.0357
   2      A      4150.27    0.018910      9.293   0.2199
   3      A      2174.30    0.009907     32.140   0.7606
   4      A       635.47    0.002895    175.607   4.1559
   5      A       484.04    0.002205     72.317   1.7114
   6      A       434.52    0.001980     58.353   1.3810
   7      A       209.83    0.000956      3.495   0.0827
   8      A       174.93    0.000797      1.532   0.0363
   9      A        64.15    0.000292      4.621   0.1094



  Normal Coordinates (bohrs*amu**(1/2)):
  --------------------------------------


                1  4391     2  4150     3  2174     4   635     5   484 
  ----------------------------------------------------------------------

    O      x    0.013619   -0.049704   -0.065113    0.009793    0.001065
    O      y    0.013836    0.008971    0.008848   -0.073626   -0.024017
    O      z   -0.062991   -0.012890   -0.004590    0.011758   -0.080642

    H      x   -0.540380    0.394220    0.463060   -0.060626    0.493947
    H      y   -0.063458    0.058031   -0.159958    0.209240   -0.178253
    H      z    0.536725   -0.440249    0.452451   -0.026366    0.405252

    H      x    0.322553    0.386409    0.575775    0.229943   -0.544527
    H      y   -0.145023   -0.193594    0.026821    0.880826    0.152716
    H      z    0.462706    0.640100   -0.382640    0.160026    0.346460


                6   435     7   210     8   175     9    64 
  ----------------------------------------------------------

    O      x   -0.076731    0.043106    0.218317    0.010917
    O      y   -0.076720    0.134083   -0.054762    0.171199
    O      z   -0.002315    0.172559   -0.028120   -0.145432

    H      x    0.037694    0.142255    0.245721    0.026383
    H      y    0.827374    0.210777    0.192984    0.342756
    H      z    0.220999    0.280952    0.028148   -0.110179

    H      x   -0.104888   -0.063218    0.206780    0.015080
    H      y   -0.241487    0.077197   -0.177172    0.195358
    H      z   -0.034180    0.226474   -0.055642   -0.144225




  Dipole Gradient in Normal Coordinate Basis (D/(A*amu**(1/2)))
  -------------------------------------------------------------


  mode           dMA/dQi        dMB/dQi        dMC/dQi
  ----------------------------------------------------
   1            0.185596      -0.008632       0.034227
   2           -0.425739       0.009071       0.196421
   3            0.866905      -0.094965       0.008781
   4            0.246775       2.017858       0.152325
   5           -0.133534       0.090867       1.298203
   6            0.178869       1.137698       0.233688
   7           -0.013695       0.017661       0.286707
   8            0.000336       0.187719       0.031863
   9            0.048227       0.325454      -0.033379



                              Total Molecular Energy
                              ----------------------

             electronic     vibrational           total    energy 

             -75.037411        0.028976      -75.008435    Hartrees
           -16468807.95         6359.50    -16462448.45    cm-1
             -197010.69           76.08      -196934.62    kJ/mol
              -47086.69           18.18       -47068.50    kcal/mol


                          Molecular Partition Functions
                          -----------------------------

 Qtran is evaluated per mol at 1 atm. pressure.
 Qrot does not include symmetry numbers.
 Qvib does not include zero point energies
 (i.e., energy scale has vibrational ground state as zero).


 Temp.(K)  Translational     Rotational    Vibrational      Total

    50.00     3.4600D+04           7.07         1.1981   2.929534D+05
   100.00     1.9573D+05          19.19         1.9034   7.150655D+06
   200.00     1.1072D+06          53.17         5.2895   3.113706D+08
   273.15     2.4136D+06          84.38        10.8363   2.206804D+09
   298.15     3.0043D+06          96.10        13.6996   3.955099D+09
   300.00     3.0511D+06          96.98        13.9361   4.123818D+09
   400.00     6.2633D+06         148.79        33.5075   3.122583D+10
   500.00     1.0942D+07         207.49        73.6529   1.672144D+11
   600.00     1.7260D+07         272.37       149.7669   7.040526D+11
   700.00     2.5375D+07         342.87       285.2866   2.482074D+12
   800.00     3.5431D+07         418.59       514.6288   7.632427D+12
   900.00     4.7562D+07         499.18       886.9121   2.105719D+13
  1000.00     6.1895D+07         584.37      1470.6281   5.319189D+13
  1500.00     1.7056D+08        1072.02     12165.1445   2.224348D+15
  2000.00     3.5013D+08        1649.30     64278.8839   3.711908D+16


                                +------------------+
                                ! Polarizabilities !
                                +------------------+


 Vibrational polarizabilities calculated acc. to Rinaldi et al.,
 Chem.Phys.Lett. 128 (1986) 177-181.


                        Vibrational Polarizabilities (au)
                        ---------------------------------

                         Ex          Ey          Ez

            Ex       1.302436    6.932225   -1.040402
            Ey       6.932225   50.253679    0.393075
            Ez      -1.040402    0.393075   11.125010



                   Vibrational Polarizabilities (angstroms**3)
                   -------------------------------------------

                         Ex          Ey          Ez

            Ex       0.193001    1.027250   -0.154172
            Ey       1.027250    7.446827    0.058248
            Ez      -0.154172    0.058248    1.648556



                   Vibrational Polarizabilities (angstroms**3)
                   -------------------------------------------

               (Along principal axes of moments of inertia)

                         EA          EB          EC

            EA       1.978365   -0.050005   -1.329810
            EB      -0.050005    0.035629    0.025244
            EC      -1.329810    0.025244    7.274391



 Vibrational mean polarization :    7.8193 cm**3 mol**-1
  Total CPU  time used in ABACUS:   0.01 seconds
  Total wall time used in ABACUS:   0.01 seconds


                   .-------------------------------------------.
                   | End of Static Property Section (ABACUS) - |
                   `-------------------------------------------'

  Total CPU  time used in DALTON:  19.41 seconds
  Total wall time used in DALTON:  19.60 seconds

 
     Date and time (Linux)  : Mon Jul 27 22:03:28 2020
     Host name              : localhost.localdomain                   
